
    -----------------------------------------------------------------------
          Psi4: An Open-Source Ab Initio Electronic Structure Package
                               Psi4 1.9.1 release

                         Git: Rev {HEAD} f53cdd7 


    D. G. A. Smith, L. A. Burns, A. C. Simmonett, R. M. Parrish,
    M. C. Schieber, R. Galvelis, P. Kraus, H. Kruse, R. Di Remigio,
    A. Alenaizan, A. M. James, S. Lehtola, J. P. Misiewicz, M. Scheurer,
    R. A. Shaw, J. B. Schriber, Y. Xie, Z. L. Glick, D. A. Sirianni,
    J. S. O'Brien, J. M. Waldrop, A. Kumar, E. G. Hohenstein,
    B. P. Pritchard, B. R. Brooks, H. F. Schaefer III, A. Yu. Sokolov,
    K. Patkowski, A. E. DePrince III, U. Bozkaya, R. A. King,
    F. A. Evangelista, J. M. Turney, T. D. Crawford, C. D. Sherrill,
    J. Chem. Phys. 152(18) 184108 (2020). https://doi.org/10.1063/5.0006002

                            Additional Code Authors
    E. T. Seidl, C. L. Janssen, E. F. Valeev, M. L. Leininger,
    J. F. Gonthier, R. M. Richard, H. R. McAlexander, M. Saitow, X. Wang,
    P. Verma, M. H. Lechner, A. Jiang, S. Behnle, A. G. Heide,
    M. F. Herbst, and D. L. Poole

             Previous Authors, Complete List of Code Contributors,
                       and Citations for Specific Modules
    https://github.com/psi4/psi4/blob/master/codemeta.json
    https://github.com/psi4/psi4/graphs/contributors
    http://psicode.org/psi4manual/master/introduction.html#citing-psifour

    -----------------------------------------------------------------------


    Psi4 started on: Saturday, 10 May 2025 09:40PM

    Process ID: 3985110
    Host:       hydrogen
    PSIDATADIR: /data/home/sydong/opt/psi4/share/psi4
    Memory:     500.0 MiB
    Threads:    1
    Molecule: geometry: Molecule is not complete, please use 'update_geometry'
                    once all variables are set.
Molecule: Setting geometry variable r_ch to 2.102300
Molecule: Setting geometry variable ahch to 101.710000

Scratch directory: /data/home/sydong/scratch/psi4/
   => Libint2 <=

    Primary   basis highest AM E, G, H:  6, 6, 3
    Auxiliary basis highest AM E, G, H:  7, 7, 4
    Onebody   basis highest AM E, G, H:  -, -, -
    Solid Harmonics ordering:            Gaussian

*** tstart() called on hydrogen
*** at Sat May 10 21:40:54 2025

   => Loading Basis Set <=

    Name: CC-PVTZ-F12
    Role: ORBITAL
    Keyword: BASIS
    atoms 1   entry C          line   214 file /data/home/sydong/opt/psi4/share/psi4/basis/cc-pvtz-f12.gbs 
    atoms 2-3 entry H          line    12 file /data/home/sydong/opt/psi4/share/psi4/basis/cc-pvtz-f12.gbs 


         ---------------------------------------------------------
                                   SCF
               by Justin Turney, Rob Parrish, Andy Simmonett
                          and Daniel G. A. Smith
                              RHF Reference
                        1 Threads,    500 MiB Core
         ---------------------------------------------------------

  ==> Geometry <==

    Molecular point group: c1
    Full point group: C2v

    Geometry (in Bohr), charge = 0, multiplicity = 1:

       Center              X                  Y                   Z               Mass       
    ------------   -----------------  -----------------  -----------------  -----------------
         C            0.000000000000     0.000000000000    -0.190863170104    12.000000000000
         H            0.000000000000    -1.630440522826     1.136287534046     1.007825032230
         H            0.000000000000     1.630440522826     1.136287534046     1.007825032230

  Running in c1 symmetry.

  Rotational constants: A =     19.80481  B =     11.23490  C =      7.16840 [cm^-1]
  Rotational constants: A = 593733.17106  B = 336813.79877  C = 214903.20347 [MHz]
  Nuclear repulsion =    6.014699644935847

  Charge       = 0
  Multiplicity = 1
  Electrons    = 8
  Nalpha       = 4
  Nbeta        = 4

  ==> Algorithm <==

  SCF Algorithm Type is PK.
  DIIS enabled.
  MOM disabled.
  Fractional occupation disabled.
  Guess Type is SAD.
  Energy threshold   = 1.00e-10
  Density threshold  = 1.00e-08
  Integral threshold = 1.00e-12

  ==> Primary Basis <==

  Basis Set: CC-PVTZ-F12
    Blend: CC-PVTZ-F12
    Number of shells: 33
    Number of basis functions: 89
    Number of Cartesian functions: 100
    Spherical Harmonics?: true
    Max angular momentum: 3

  ==> Integral Setup <==

  Using in-core PK algorithm.
   Calculation information:
      Number of atoms:                   3
      Number of AO shells:              33
      Number of primitives:             54
      Number of atomic orbitals:       100
      Number of basis functions:        89

      Integral cutoff                 1.00e-12
      Number of threads:                 1

  Performing in-core PK
  Using 16044030 doubles for integral storage.
  We computed 157640 shell quartets total.
  Whereas there are 157641 unique shell quartets.

  ==> DiskJK: Disk-Based J/K Matrices <==

    J tasked:                  Yes
    K tasked:                  Yes
    wK tasked:                  No
    Memory [MiB]:              375
    Schwarz Cutoff:          1E-12

    OpenMP threads:              1

  Minimum eigenvalue in the overlap matrix is 3.0214385248E-04.
  Reciprocal condition number of the overlap matrix is 4.4533447776E-05.
    Using symmetric orthogonalization.

  ==> Pre-Iterations <==

  SCF Guess: Superposition of Atomic Densities via on-the-fly atomic UHF (no occupation information).

   -------------------------
    Irrep   Nso     Nmo    
   -------------------------
     A         89      89 
   -------------------------
    Total      89      89
   -------------------------

  ==> Iterations <==

                        Total Energy        Delta E     RMS |[F,P]|

   @RHF iter SAD:   -38.15121022742902   -3.81512e+01   0.00000e+00 
   @RHF iter   1:   -38.88135750578186   -7.30147e-01   1.53379e-03 ADIIS/DIIS
   @RHF iter   2:   -38.89409938483283   -1.27419e-02   3.84395e-04 ADIIS/DIIS
   @RHF iter   3:   -38.89490728173507   -8.07897e-04   1.06891e-04 ADIIS/DIIS
   @RHF iter   4:   -38.89501467407487   -1.07392e-04   2.31633e-05 DIIS
   @RHF iter   5:   -38.89502005427401   -5.38020e-06   4.90457e-06 DIIS
   @RHF iter   6:   -38.89502037997293   -3.25699e-07   5.26874e-07 DIIS
   @RHF iter   7:   -38.89502038371279   -3.73986e-09   1.13303e-07 DIIS
   @RHF iter   8:   -38.89502038388017   -1.67375e-10   1.65588e-08 DIIS
   @RHF iter   9:   -38.89502038388406   -3.89377e-12   1.74507e-09 DIIS
  Energy and wave function converged.


  ==> Post-Iterations <==

    Orbital Energies [Eh]
    ---------------------

    Doubly Occupied:                                                      

       1A    -11.294103     2A     -0.891887     3A     -0.563776  
       4A     -0.397196  

    Virtual:                                                              

       5A      0.024214     6A      0.061227     7A      0.078106  
       8A      0.096897     9A      0.113846    10A      0.209296  
      11A      0.215631    12A      0.360826    13A      0.369723  
      14A      0.403589    15A      0.439793    16A      0.449131  
      17A      0.483672    18A      0.484840    19A      0.501267  
      20A      0.557424    21A      0.645129    22A      0.802912  
      23A      0.818969    24A      0.923370    25A      0.928186  
      26A      0.984849    27A      1.018954    28A      1.036898  
      29A      1.360850    30A      1.361797    31A      1.364808  
      32A      1.394248    33A      1.403009    34A      1.435760  
      35A      1.557019    36A      1.584941    37A      1.656079  
      38A      1.765816    39A      1.771632    40A      1.858356  
      41A      1.863739    42A      1.900122    43A      1.913581  
      44A      1.926430    45A      1.961195    46A      1.973503  
      47A      2.124025    48A      2.148003    49A      2.230474  
      50A      2.268778    51A      2.302607    52A      2.333001  
      53A      2.342307    54A      2.510956    55A      2.725336  
      56A      2.993306    57A      3.009556    58A      3.058552  
      59A      3.158187    60A      3.270682    61A      3.418379  
      62A      3.702187    63A      4.617072    64A      4.620472  
      65A      4.682499    66A      4.713208    67A      4.734949  
      68A      4.902547    69A      4.927220    70A      5.225301  
      71A      5.575236    72A      5.677061    73A      5.713615  
      74A      5.740876    75A      5.814609    76A      5.896802  
      77A      6.641880    78A      7.018571    79A      7.920365  
      80A      7.960057    81A      7.973416    82A      8.240986  
      83A      8.337144    84A      9.044177    85A      9.167448  
      86A     20.471971    87A     20.711125    88A     21.408091  
      89A     21.997795  

    Final Occupation by Irrep:
              A 
    DOCC [     4 ]
    NA   [     4 ]
    NB   [     4 ]

  @RHF Final Energy:   -38.89502038388406

   => Energetics <=

    Nuclear Repulsion Energy =              6.0146996449358472
    One-Electron Energy =                 -63.5255138672669943
    Two-Electron Energy =                  18.6157938384470860
    Total Energy =                        -38.8950203838840594

Computation Completed


Properties will be evaluated at   0.000000,   0.000000,   0.000000 [a0]

Properties computed using the SCF density matrix


 Multipole Moments:

 ------------------------------------------------------------------------------------
     Multipole            Electronic (a.u.)      Nuclear  (a.u.)        Total (a.u.)
 ------------------------------------------------------------------------------------

 L = 1.  Multiply by 2.5417464519 to convert [e a0] to [Debye]
 Dipole X            :         -0.0000000            0.0000000           -0.0000000
 Dipole Y            :          0.0000000            0.0000000            0.0000000
 Dipole Z            :         -0.3791122            1.1273960            0.7482839
 Magnitude           :                                                    0.7482839

 ------------------------------------------------------------------------------------

*** tstop() called on hydrogen at Sat May 10 21:40:55 2025
Module time:
	user time   =       0.92 seconds =       0.02 minutes
	system time =       0.16 seconds =       0.00 minutes
	total time  =          1 seconds =       0.02 minutes
Total time:
	user time   =       0.92 seconds =       0.02 minutes
	system time =       0.16 seconds =       0.00 minutes
	total time  =          1 seconds =       0.02 minutes

Scratch directory: /data/home/sydong/scratch/psi4/

  Forte
  ----------------------------------------------------------------------------
  A suite of quantum chemistry methods for strongly correlated electrons

    git branch: ct_forte - git commit: 41562031

  Developed by:
    Francesco A. Evangelista, Chenyang Li, Kevin P. Hannon,
    Jeffrey B. Schriber, Tianyuan Zhang, Chenxi Cai,
    Nan He, Nicholas Stair, Shuhe Wang, Renke Huang
  ----------------------------------------------------------------------------

  Forte will use options passed as a dictionary. Option read from psi4 will be ignored


  Preparing forte objects from a Psi4 Wavefunction object Using basis set CC-PVTZ-F12 from Psi4 global options.   => Loading Basis Set <=

    Name: CC-PVTZ-F12
    Role: ORBITAL
    Keyword: BASIS
    atoms 1   entry C          line   214 file /data/home/sydong/opt/psi4/share/psi4/basis/cc-pvtz-f12.gbs 
    atoms 2-3 entry H          line    12 file /data/home/sydong/opt/psi4/share/psi4/basis/cc-pvtz-f12.gbs 



  ==> MO Space Information <==

  -------------------------------
                        A   Sum
  -------------------------------
    FROZEN_DOCC         1     1
    RESTRICTED_DOCC     0     0
    GAS1                6     6
    GAS2                0     0
    GAS3                0     0
    GAS4                0     0
    GAS5                0     0
    GAS6                0     0
    RESTRICTED_UOCC    82    82
    FROZEN_UOCC         0     0
    Total              89    89
  -------------------------------   => Loading Basis Set <=

    Name: STO-3G
    Role: ORBITAL
    Keyword: MINAO_BASIS
    atoms 1   entry C          line    61 file /data/home/sydong/opt/psi4/share/psi4/basis/sto-3g.gbs 
    atoms 2-3 entry H          line    19 file /data/home/sydong/opt/psi4/share/psi4/basis/sto-3g.gbs 


  State Singlet (Ms = 0) A GAS min: 0 0 0 0 0 0 ; GAS max: 12 0 0 0 0 0 ; weights:
      1.000000000000
  Forte will use psi4 integrals

  ==> Primary Basis Set Summary <==

  Basis Set: CC-PVTZ-F12
    Blend: CC-PVTZ-F12
    Number of shells: 33
    Number of basis functions: 89
    Number of Cartesian functions: 100
    Spherical Harmonics?: true
    Max angular momentum: 3


  JK created using conventional PK integrals
  Using in-core PK algorithm.
   Calculation information:
      Number of atoms:                   3
      Number of AO shells:              33
      Number of primitives:             54
      Number of atomic orbitals:       100
      Number of basis functions:        89

      Integral cutoff                 1.00e-12
      Number of threads:                 1

  Performing in-core PK
  Using 16044030 doubles for integral storage.
  We computed 157640 shell quartets total.
  Whereas there are 157641 unique shell quartets.

  ==> DiskJK: Disk-Based J/K Matrices <==

    J tasked:                  Yes
    K tasked:                  Yes
    wK tasked:                  No
    Memory [MiB]:              400
    Schwarz Cutoff:          1E-12

    OpenMP threads:              1



  ==> Integral Transformation <==

  Number of molecular orbitals:                         89
  Number of correlated molecular orbitals:              88
  Number of frozen occupied orbitals:                    1
  Number of frozen unoccupied orbitals:                  0
  Two-electron integral type:                 Conventional


  Computing Conventional Integrals	Presorting SO-basis two-electron integrals.
	Sorting File: SO Ints (nn|nn) nbuckets = 1
	Constructing frozen core operators
	Starting first half-transformation.
	Sorting half-transformed integrals.
	First half integral transformation complete.
	Starting second half-transformation.
	Two-electron integral transformation complete.

  Integral transformation done. 1.66575000 s
  Reading the two-electron integrals from disk
  Size of two-electron integrals:   1.402398 GB
  Timing for conventional integral transformation:            6.219 s.
  Frozen-core energy         -34.262787798510431 a.u.
  Timing for frozen one-body operator:                        0.011 s.
  Resorting integrals after freezing core.
  Timing for freezing core and virtual orbitals:              3.986 s.
  Timing for computing conventional integrals:               10.205 s.

          -----------------------------------------------------------
                  Multi-Configurational Self Consistent Field
                Two-Step Approximate Second-Order AO Algorithm
            written by Chenyang Li, Kevin P. Hannon, and Shuhe Wang
          -----------------------------------------------------------


  ==> MCSCF Calculation Information <==

    --------------------------------------------------------
    Print level                                      Default
    Integral type                               CONVENTIONAL
    CI solver type                                       FCI
    Final orbital type                             CANONICAL
    Derivative type                                     NONE
    Optimize orbitals                                   TRUE
    Include internal rotations                         FALSE
    Debug printing                                     FALSE
    Energy convergence                             1.000e-10
    Gradient convergence                           1.000e-06
    Max value for rotation                         2.000e-01
    Max number of macro iter.                            100
    Max number of micro iter. for orbitals                 6
    Max number of micro iter. for CI                      12
    DIIS start                                            15
    Min DIIS vectors                                       3
    Max DIIS vectors                                       8
    Frequency of DIIS extrapolation                        1
    --------------------------------------------------------

  ==> Independent Orbital Rotations <==

    ORBITAL SPACES                         A
    ----------------------------------------
             ACTIVE / RESTRICTED_DOCC      0
    RESTRICTED_UOCC /          ACTIVE    492
    RESTRICTED_UOCC / RESTRICTED_DOCC      0
    ----------------------------------------

  ==> String Lists <==

    --------------------------------------------------------
    number of alpha electrons                              3
    number of beta electrons                               3
    number of alpha strings                               20
    number of beta strings                                20
    --------------------------------------------------------

  ==> FCI Solver <==

    --------------------------------------------------------
    Spin adapt                                         FALSE
    Number of determinants                               400
    Symmetry                                               0
    Multiplicity                                           1
    Number of roots                                        1
    Target root                                            0
    --------------------------------------------------------
  Initial guess space is incomplete.
  Adding 8 determinant(s).

  ==> Initial Guess <==

  Initial guess determinants:         58

  Classification of the initial guess solutions

  Number   2S+1   Selected
  ------------------------
    27       1       *
    27       3        
     4       5        
  ------------------------

    Spin    Root           Energy        <S^2>    Status
  -------------------------------------------------------
   singlet    0      -73.159225055290  -0.000000  added
  -------------------------------------------------------

  ==> Davidson-Liu Solver <==

    --------------------------------------------------------
    Print level                                      Default
    Energy convergence threshold                   1.000e-10
    Residual convergence threshold                 1.000e-08
    Schmidt orthogonality threshold                1.000e-12
    Schmidt discard threshold                      1.000e-07
    Size of the space                                    400
    Number of roots                                        1
    Maximum number of iterations                         100
    Collapse subspace size                                 2
    Maximum subspace size                                 10
    --------------------------------------------------------

  Davidson-Liu solver: adding 1 guess vectors
  Iteration     Average Energy            max(∆E)            max(Residual)  Vectors
  ---------------------------------------------------------------------------------
       0      -38.896437256779       38.896437256779        0.037239753064      1
       1      -38.897401708689        0.000964451910        0.004829309999      2
       2      -38.897431897454        0.000030188765        0.001293342131      3
       3      -38.897433581430        0.000001683975        0.000181914077      4
       4      -38.897433607571        0.000000026141        0.000023532575      5
       5      -38.897433607902        0.000000000331        0.000002340923      6
       6      -38.897433607905        0.000000000003        0.000000186017      7
       7      -38.897433607905        0.000000000000        0.000000019992      8
       8      -38.897433607905        0.000000000000        0.000000002041      9
  ---------------------------------------------------------------------------------

  ==> Root No. 0 <==

    222000      0.99859437
    220200     -0.03924731
    022200     -0.02556041
    b2a200      0.01481400
    a2b200      0.01481400

    Total Energy:     -38.897433607905, <S^2>: -0.000000
    Time for FCI:       0.020842379000

  ==> Energy Summary <==

    Multi.(2ms)  Irrep.  No.               Energy      <S^2>
    --------------------------------------------------------
       1  (  0)     A     0      -38.897433607905  -0.000000
    --------------------------------------------------------
  Computing RDMs for dipole moments ... Done

  ==> Summary of Dipole Moments [e a0] (Nuclear + Electronic) <==

       State           DM_X           DM_Y           DM_Z           |DM|
    --------------------------------------------------------------------
          0A     0.00000000     0.00000000     0.74416014     0.74416014
    --------------------------------------------------------------------
     Nuclear     0.00000000     0.00000000     1.12739605     1.12739605
    --------------------------------------------------------------------

  ==> Natural Orbitals <==

        2A      1.999747      3A      1.999390      4A      1.995246  
        5A      0.005457      6A      0.000099      7A      0.000061  

 sydong:  unsymmetrize 2RDM


  ==> MCSCF Iterations <==

                      Energy CI                    Energy Orbital
           ------------------------------  ------------------------------
    Iter.        Total Energy       Delta        Total Energy       Delta  Orb. Grad.  Micro
    ----------------------------------------------------------------------------------------
 sydong:  unsymmetrize 2RDM

  L-BFGS Warning: Skip this vector due to negative rho
  L-BFGS Warning: Skip this vector due to negative rho
  L-BFGS Warning: Skip this vector due to negative rho
       1     -38.897433607905 -3.8897e+01    -38.909746921674 -3.8910e+01  6.8239e-04    6/N

  Davidson-Liu solver: restarting from previous calculation.
 sydong:  unsymmetrize 2RDM

       2     -38.943083394085 -4.5650e-02    -38.951552782028 -4.1806e-02  7.5895e-04    6/N

  Davidson-Liu solver: restarting from previous calculation.
 sydong:  unsymmetrize 2RDM

       3     -38.955880927663 -1.2798e-02    -38.956810998392 -5.2582e-03  1.9365e-05    6/N

  Davidson-Liu solver: restarting from previous calculation.
 sydong:  unsymmetrize 2RDM

       4     -38.957139872927 -1.2589e-03    -38.957237065949 -4.2607e-04  5.4907e-06    6/N

  Davidson-Liu solver: restarting from previous calculation.
 sydong:  unsymmetrize 2RDM

       5     -38.957271509225 -1.3164e-04    -38.957283530878 -4.6465e-05  2.6847e-06    6/N

  Davidson-Liu solver: restarting from previous calculation.
 sydong:  unsymmetrize 2RDM

       6     -38.957287943379 -1.6434e-05    -38.957289564838 -6.0340e-06  1.0639e-06    6/N

  Davidson-Liu solver: restarting from previous calculation.
 sydong:  unsymmetrize 2RDM

       7     -38.957290170366 -2.2270e-06    -38.957290397654 -8.3282e-07  4.1190e-07    6/N

  Davidson-Liu solver: restarting from previous calculation.
 sydong:  unsymmetrize 2RDM

       8     -38.957290483588 -3.1322e-07    -38.957290516290 -1.1864e-07  1.5785e-07    5/Y

  Davidson-Liu solver: restarting from previous calculation.
 sydong:  unsymmetrize 2RDM

       9     -38.957290528810 -4.5223e-08    -38.957290533614 -1.7324e-08  6.0521e-08    5/Y

  Davidson-Liu solver: restarting from previous calculation.
 sydong:  unsymmetrize 2RDM

      10     -38.957290535473 -6.6629e-09    -38.957290536192 -2.5772e-09  7.5277e-08    3/Y

  Davidson-Liu solver: restarting from previous calculation.
 sydong:  unsymmetrize 2RDM

      11     -38.957290536477 -1.0041e-09    -38.957290536585 -3.9305e-10  7.1685e-08    2/Y

  Davidson-Liu solver: restarting from previous calculation.
 sydong:  unsymmetrize 2RDM

      12     -38.957290536626 -1.4872e-10    -38.957290536645 -6.0091e-11  4.8748e-08    2/Y

  Davidson-Liu solver: restarting from previous calculation.
 sydong:  unsymmetrize 2RDM

      13     -38.957290536652 -2.5885e-11    -38.957290536655 -9.6918e-12  4.5059e-08    1/Y
    ----------------------------------------------------------------------------------------

  A miracle has come to pass: MCSCF iterations have converged!

  Performing final CI Calculation using converged orbitals

  ==> String Lists <==

    --------------------------------------------------------
    number of alpha electrons                              3
    number of beta electrons                               3
    number of alpha strings                               20
    number of beta strings                                20
    --------------------------------------------------------

  ==> FCI Solver <==

    --------------------------------------------------------
    Spin adapt                                         FALSE
    Number of determinants                               400
    Symmetry                                               0
    Multiplicity                                           1
    Number of roots                                        1
    Target root                                            0
    --------------------------------------------------------

  ==> Davidson-Liu Solver <==

    --------------------------------------------------------
    Print level                                      Default
    Energy convergence threshold                   1.000e-10
    Residual convergence threshold                 1.000e-08
    Schmidt orthogonality threshold                1.000e-12
    Schmidt discard threshold                      1.000e-07
    Size of the space                                    400
    Number of roots                                        1
    Maximum number of iterations                         100
    Collapse subspace size                                 2
    Maximum subspace size                                 10
    --------------------------------------------------------

  Davidson-Liu solver: restarting from previous calculation.
  Iteration     Average Energy            max(∆E)            max(Residual)  Vectors
  ---------------------------------------------------------------------------------
       0      -38.957290536655        0.000000000003        0.000000928966      1
       1      -38.957290536655        0.000000000001        0.000000258554      2
       2      -38.957290536655        0.000000000000        0.000000087401      3
       3      -38.957290536655        0.000000000000        0.000000015702      4
       4      -38.957290536655        0.000000000000        0.000000002674      5
  ---------------------------------------------------------------------------------

  ==> Root No. 0 <==

    222000     -0.96625775
    220200      0.18485897
    202002      0.07111433
    a2b200     -0.06456317
    b2a200     -0.06456317
    022020      0.04316178
    022200      0.04298225
    ba20ab      0.04051243
    ab20ba      0.04051243
    202020      0.03644721
    2ab0ab      0.03329148
    2ba0ba      0.03329148
    a2b020      0.03063061
    b2a020      0.03063061
    ab20ab      0.02939326
    ba20ba      0.02939326
    220002      0.02698108
    220020      0.02409923
    2ab0ba      0.02273692
    2ba0ab      0.02273692
    022002      0.02234427
    200202     -0.01388177
    020220     -0.01337291
    bb20aa     -0.01111916
    aa20bb     -0.01111916
    2bb0aa      0.01055456
    2aa0bb      0.01055456
    ba02ab     -0.01006326
    ab02ba     -0.01006326

    Total Energy:     -38.957290536655, <S^2>: -0.000000
    Time for FCI:       0.012529029000

  ==> Energy Summary <==

    Multi.(2ms)  Irrep.  No.               Energy      <S^2>
    --------------------------------------------------------
       1  (  0)     A     0      -38.957290536655  -0.000000
    --------------------------------------------------------
  Computing RDMs for dipole moments ... Done

  ==> Summary of Dipole Moments [e a0] (Nuclear + Electronic) <==

       State           DM_X           DM_Y           DM_Z           |DM|
    --------------------------------------------------------------------
          0A     0.00000000     0.00000000     0.62345850     0.62345850
    --------------------------------------------------------------------
     Nuclear     0.00000000     0.00000000     1.12739605     1.12739605
    --------------------------------------------------------------------

  ==> Natural Orbitals <==

        2A      1.981414      3A      1.977064      4A      1.906911  
        5A      0.090796      6A      0.022620      7A      0.021193  

  Canonicalizing final MCSCF orbitals

  ==> Semicanonicalize Orbitals <==

    MIX INACTIVE ORBITALS         FALSE
    MIX GAS ACTIVE ORBITALS       FALSE
    FROZEN_DOCC                   CANONICAL
    FROZEN_UOCC                   CANONICAL
    GAS1                          CANONICAL
    RESTRICTED_DOCC               CANONICAL
    RESTRICTED_UOCC               CANONICAL

    Off-Diag. Elements       Max           2-Norm
    ------------------------------------------------
    FROZEN_DOCC          0.0000000000   0.0000000000
    GAS1                 0.0083405381   0.0139148135
    RESTRICTED_UOCC      0.2997379049   1.4858203149
    ------------------------------------------------

    Canonicalization test failed

  Warning: Failed to fix orbital phase and order.
  Timing for orbital canonicalization:                        0.001 s.

  !!! WARNING: Final Active Orbitals Maybe Different from the Original !!!

    Based on projections of maximum overlap method:
           5A -> 8A        RESTRICTED_UOCC
           6A -> 9A        RESTRICTED_UOCC
  Orbital rotations on spin-free RDMs ...
    Transformed 1 RDMs.
    Transformed 2 RDMs.
  Integrals are about to be updated.
  Computing Conventional Integrals	Presorting SO-basis two-electron integrals.
	Sorting File: SO Ints (nn|nn) nbuckets = 1
	Constructing frozen core operators
	Starting first half-transformation.
	Sorting half-transformed integrals.
	First half integral transformation complete.
	Starting second half-transformation.
	Two-electron integral transformation complete.

  Integral transformation done. 1.65577344 s
  Reading the two-electron integrals from disk
  Size of two-electron integrals:   1.402398 GB
  Timing for conventional integral transformation:            6.612 s.
  Frozen-core energy         -34.262787798510431 a.u.
  Timing for frozen one-body operator:                        0.011 s.
  Resorting integrals after freezing core.
  Timing for freezing core and virtual orbitals:              3.892 s.
  Integrals update took    10.504 s.

  The integrals are not consistent with the orbitals. Re-transforming them.


  ==> String Lists <==

    --------------------------------------------------------
    number of alpha electrons                              3
    number of beta electrons                               3
    number of alpha strings                               20
    number of beta strings                                20
    --------------------------------------------------------

  ==> FCI Solver <==

    --------------------------------------------------------
    Spin adapt                                         FALSE
    Number of determinants                               400
    Symmetry                                               0
    Multiplicity                                           1
    Number of roots                                        1
    Target root                                            0
    --------------------------------------------------------
  Initial guess space is incomplete.
  Adding 9 determinant(s).

  ==> Initial Guess <==

  Initial guess determinants:         59

  Classification of the initial guess solutions

  Number   2S+1   Selected
  ------------------------
    27       1       *
    28       3        
     4       5        
  ------------------------

    Spin    Root           Energy        <S^2>    Status
  -------------------------------------------------------
   singlet    0      -73.178229681131  -0.000000  added
  -------------------------------------------------------

  ==> Davidson-Liu Solver <==

    --------------------------------------------------------
    Print level                                      Default
    Energy convergence threshold                   1.000e-10
    Residual convergence threshold                 1.000e-08
    Schmidt orthogonality threshold                1.000e-12
    Schmidt discard threshold                      1.000e-07
    Size of the space                                    400
    Number of roots                                        1
    Maximum number of iterations                         100
    Collapse subspace size                                 2
    Maximum subspace size                                 10
    --------------------------------------------------------

  Davidson-Liu solver: adding 1 guess vectors
  Iteration     Average Energy            max(∆E)            max(Residual)  Vectors
  ---------------------------------------------------------------------------------
       0      -38.915441882621       38.915441882621        0.274483350686      1
       1      -38.955767786213        0.040325903592        0.058371915069      2
       2      -38.957236769740        0.001468983528        0.010405686674      3
       3      -38.957287637248        0.000050867507        0.002283267193      4
       4      -38.957290435440        0.000002798192        0.000460815296      5
       5      -38.957290533456        0.000000098016        0.000080894369      6
       6      -38.957290536533        0.000000003078        0.000015386578      7
       7      -38.957290536651        0.000000000117        0.000002829589      8
       8      -38.957290536655        0.000000000004        0.000000532809      9
       9      -38.957290536655        0.000000000000        0.000000097856     10
      10      -38.957290536655        0.000000000000        0.000000023221      3
      11      -38.957290536655        0.000000000000        0.000000003982      4
  ---------------------------------------------------------------------------------

  ==> Root No. 0 <==

    222000     -0.96631070
    220200      0.18552530
    202020      0.07114770
    b2a200     -0.06387269
    a2b200     -0.06387269
    022002      0.04346403
    022200      0.04235633
    ba20ba     -0.04067981
    ab20ab     -0.04067981
    202002      0.03644721
    2ab0ba     -0.03311524
    2ba0ab     -0.03311524
    b2a002      0.03053119
    a2b002      0.03053119
    ab20ba     -0.02950430
    ba20ab     -0.02950430
    220020      0.02695463
    220002      0.02386558
    2ab0ab     -0.02259101
    2ba0ba     -0.02259101
    022020      0.02235879
    200220     -0.01395189
    020202     -0.01340014
    bb20aa     -0.01117551
    aa20bb     -0.01117551
    2aa0bb      0.01052423
    2bb0aa      0.01052423
    ba02ba      0.01008346
    ab02ab      0.01008346

    Total Energy:     -38.957290536655, <S^2>: 0.000000
    Time for FCI:       0.025553862000

  ==> Energy Summary <==

    Multi.(2ms)  Irrep.  No.               Energy      <S^2>
    --------------------------------------------------------
       1  (  0)     A     0      -38.957290536655   0.000000
    --------------------------------------------------------
  Computing RDMs for dipole moments ... Done

  ==> Summary of Dipole Moments [e a0] (Nuclear + Electronic) <==

       State           DM_X           DM_Y           DM_Z           |DM|
    --------------------------------------------------------------------
          0A     0.00000000     0.00000000     0.64388997     0.64388997
    --------------------------------------------------------------------
     Nuclear     0.00000000     0.00000000     1.12739605     1.12739605
    --------------------------------------------------------------------

  ==> Natural Orbitals <==

        2A      1.981414      3A      1.977064      4A      1.906911  
        5A      0.090796      6A      0.022620      7A      0.021193  


  ==> Semicanonicalize Orbitals <==

    MIX INACTIVE ORBITALS         FALSE
    MIX GAS ACTIVE ORBITALS       FALSE
    FROZEN_DOCC                   CANONICAL
    FROZEN_UOCC                   CANONICAL
    GAS1                          CANONICAL
    RESTRICTED_DOCC               CANONICAL
    RESTRICTED_UOCC               CANONICAL

    Off-Diag. Elements       Max           2-Norm
    ------------------------------------------------
    FROZEN_DOCC          0.0000000000   0.0000000000
    GAS1                 0.0000000002   0.0000000004
    RESTRICTED_UOCC      0.0000000005   0.0000000026
    ------------------------------------------------

    Canonicalization test passed

  Orbitals are already semicanonicalized.
  Timing for orbital canonicalization:                        0.076 s.

  ==> Multireference Driven Similarity Renormalization Group <==

    Computing Fock matrix and cleaning JK ........... Done
    Reading DSRG options ............................ Done
    Setting ambit MO space .......................... Done
    Preparing tensors for density cumulants ......... Done
    Filling Fock matrix from ForteIntegrals ......... Done

              ----------------------------------------------------
                    MR-DSRG Second-Order Perturbation Theory
                Chenyang Li, Kevin Hannon, Francesco Evangelista
              ----------------------------------------------------

    References:
      u-DSRG-MRPT2:    J. Chem. Theory Comput. 2015, 11, 2097.
      (pr-)DSRG-MRPT2: J. Chem. Phys. 2017, 146, 124132.

  ==> Calculation Information <==

    --------------------------------------------------------
    int_type                                    CONVENTIONAL
    source operator                                 STANDARD
    reference relaxation                                NONE
    state_type                                STATE-SPECIFIC
    form Hbar3                                         FALSE
    flow parameter                                 5.000e-01
    taylor expansion threshold                     1.000e-03
    intruder_tamp                                  1.000e-01
    ntamp                                                 15
    --------------------------------------------------------
  =>** Before self.dsrg_solver.compute_energy() **<=


  ==> Checking Semicanonical Orbitals <==

    Block             Fa Max         Fa Mean           Fb Max         Fb Mean
    -------------------------------------------------------------------------
    CORE        0.0000000000    0.0000000000     0.0000000000    0.0000000000
    VIRTUAL     0.0000000005    0.0000000000     0.0000000005    0.0000000000
    GAS1        0.0000000002    0.0000000000     0.0000000002    0.0000000000
    -------------------------------------------------------------------------
    Orbitals are semi-canonicalized.

  ==> Computing DSRG-MRPT2 ... <==

    Computing T2 amplitudes                  ...  Done. Timing        0.042106 s
    Computing T1 amplitudes                  ...  Done. Timing        0.001514 s
    Renormalizing two-electron integrals     ...  Done. Timing        0.036259 s
    Renormalizing Fock matrix elements       ...  Done. Timing        0.001496 s
    Computing <[F, T1]>                      ...  Done. Timing        0.000591 s
    Computing <[F, T2]>                      ...  Done. Timing        0.001807 s
    Computing <[V, T1]>                      ...  Done. Timing        0.001516 s
    Computing <[V, T2]> (C_2)^4              ...  Done. Timing        0.012361 s
    Computing <[V, T2]> C_4 (C_2)^2 HH       ...  Done. Timing        0.002551 s
    Computing <[V, T2]> C_4 (C_2)^2 PP       ...  Done. Timing        0.005027 s
    Computing <[V, T2]> C_4 (C_2)^2 PH       ...  Done. Timing        0.015010 s
    Computing <[V, T2]> C_6 C_2              ...  Done. Timing        0.011806 s

  ==> Excitation Amplitudes Summary <==

    Active Indices:    0    1    2    3    4    5 
    Largest T1 amplitudes for spin case A:
       i       a                  i       a                  i       a               
    --------------------------------------------------------------------------------
    [  4      36    ] 0.103259 [  3      50    ]-0.081402 [  5      35    ]-0.079072 
    [  4      60    ]-0.069245 [  4      48    ]-0.066067 [  3      54    ] 0.064512 
    [  5      52    ]-0.061454 [  5      43    ]-0.057741 [  5      46    ]-0.054729 
    [  5      58    ] 0.047675 [  5      57    ] 0.045863 [  4      27    ] 0.043897 
    [  3      22    ] 0.043262 [  5      59    ] 0.041657 [  4      38    ] 0.041208 
    --------------------------------------------------------------------------------
    Norm of T1A vector: (nonzero elements: 343)                   0.275612444426485.
    --------------------------------------------------------------------------------
    Largest T1 amplitudes for spin case B:
       _       _                  _       _                  _       _               
       i       a                  i       a                  i       a               
    --------------------------------------------------------------------------------
    [  4      36    ] 0.103259 [  3      50    ]-0.081402 [  5      35    ]-0.079072 
    [  4      60    ]-0.069245 [  4      48    ]-0.066067 [  3      54    ] 0.064512 
    [  5      52    ]-0.061454 [  5      43    ]-0.057741 [  5      46    ]-0.054729 
    [  5      58    ] 0.047675 [  5      57    ] 0.045863 [  4      27    ] 0.043897 
    [  3      22    ] 0.043262 [  5      59    ] 0.041657 [  4      38    ] 0.041208 
    --------------------------------------------------------------------------------
    Norm of T1B vector: (nonzero elements: 343)                   0.275612444426485.
    --------------------------------------------------------------------------------
    Largest T2 amplitudes for spin case AA:
     i   j   a   b              i   j   a   b              i   j   a   b             
    --------------------------------------------------------------------------------
    [  3   4   4  34] -0.035853 [  3   5   5  34] -0.033181 [  0   3   0  34]  0.031224 
    [  2   3   2  34]  0.030771 [  2   3   3  18]  0.028560 [  1   5   5  26] -0.027447 
    [  1   3   1  34]  0.026760 [  4   5   4  57]  0.025713 [  3   4   3  36]  0.024535 
    [  3   5   3  57]  0.022426 [  3   4   3  55] -0.022371 [  1   5   5  12]  0.022010 
    [  2   4   4  18]  0.021972 [  2   4   2  36]  0.021001 [  4   5   4  35] -0.020237 
    --------------------------------------------------------------------------------
    Norm of T2AA vector: (nonzero elements: 130040)               0.486015441787599.
    --------------------------------------------------------------------------------
    Largest T2 amplitudes for spin case AB:
         _       _                  _       _                  _       _             
     i   j   a   b              i   j   a   b              i   j   a   b             
    --------------------------------------------------------------------------------
    [  3   3   3  34]  0.041492 [  2   2   2  18] -0.034155 [  0   3   0  34]  0.033728 
    [  2   3   2  34]  0.032195 [  5   5   5  57]  0.029617 [  3   3  34  34] -0.028715 
    [  4   4   4  36]  0.028148 [  1   3   1  34]  0.026932 [  0   1   0  26]  0.026763 
    [  4   4   1  55] -0.026660 [  5   5   0  57]  0.026152 [  0   1   0  12] -0.025729 
    [  4   5   1  57]  0.024653 [  5   5   5  35] -0.024309 [  3   5   3  57]  0.024144 
    --------------------------------------------------------------------------------
    Norm of T2AB vector: (nonzero elements: 162370)               0.552914739599000.
    --------------------------------------------------------------------------------
    Largest T2 amplitudes for spin case BB:
     _   _   _   _              _   _   _   _              _   _   _   _             
     i   j   a   b              i   j   a   b              i   j   a   b             
    --------------------------------------------------------------------------------
    [  3   4   4  34] -0.035853 [  3   5   5  34] -0.033181 [  0   3   0  34]  0.031224 
    [  2   3   2  34]  0.030771 [  2   3   3  18]  0.028560 [  1   5   5  26] -0.027447 
    [  1   3   1  34]  0.026760 [  4   5   4  57]  0.025713 [  3   4   3  36]  0.024535 
    [  3   5   3  57]  0.022426 [  3   4   3  55] -0.022371 [  1   5   5  12]  0.022010 
    [  2   4   4  18]  0.021972 [  2   4   2  36]  0.021001 [  4   5   4  35] -0.020237 
    --------------------------------------------------------------------------------
    Norm of T2BB vector: (nonzero elements: 130040)               0.486015441787599.
    --------------------------------------------------------------------------------

  ==> Possible Intruders <==

    T1 amplitudes larger than 0.1000 for spin case A:
        Amplitude         Value                  Denominator              
    ----------------------------------------------------------------------
    [  4      36    ]    0.10325933 (  0.636345 -   1.718406 =  -1.082061)
    ----------------------------------------------------------------------
    T1 amplitudes larger than 0.1000 for spin case B:
        Amplitude         Value                  Denominator              
    ----------------------------------------------------------------------
    [  4      36    ]    0.10325933 (  0.636345 -   1.718406 =  -1.082061)
    ----------------------------------------------------------------------
    T2 amplitudes larger than 0.1000 for spin case AA: NULL
    T2 amplitudes larger than 0.1000 for spin case AB: NULL
    T2 amplitudes larger than 0.1000 for spin case BB: NULL

  ==> DSRG-MRPT2 Energy Summary <==

    E0 (reference)                 =    -38.957290536655108
    <[F, T1]>                      =     -0.010607102103969
    <[F, T2]>                      =      0.011577938718121
    <[V, T1]>                      =      0.009309280375782
    <[V, T2]> (C_2)^4              =     -0.116840975965104
    <[V, T2]> C_4 (C_2)^2 HH       =      0.000000000000000
    <[V, T2]> C_4 (C_2)^2 PP       =      0.016774414466340
    <[V, T2]> C_4 (C_2)^2 PH       =      0.002525409183264
    <[V, T2]> C_6 C_2              =     -0.002630799773126
    <[V, T2]>                      =     -0.100171952088627
    DSRG-MRPT2 correlation energy  =     -0.089891835098692
    DSRG-MRPT2 total energy        =    -39.047182371753799
    max(T1)                        =      0.103259332059346
    max(T2)                        =      0.041492130038072
    ||T1||                         =      0.389774856866736
    ||T2||                         =      1.302029514402538

  Energy took      0.560 s

  =>** After self.dsrg_solver.compute_energy() **<=

  Semicanonical orbitals must be used!


  ==> Total Timings (s) for Computing Commutators <==

           [H1, T1]    [H1, T2]    [H2, T1]    [H2, T2]  
    -----------------------------------------------------
    -> C0       0.001       0.002       0.002       0.047
    -> C1       0.000       0.000       0.000       0.000
    -> C2                   0.000       0.000       0.000
    -----------------------------------------------------


  Time to prepare integrals:       11.603 seconds
  Time to run job          :       44.311 seconds
  Total                    :       55.914 seconds
