
Host: debianlab

Timers On : Tue Feb 18 16:42:57 2025
Timers Off: Tue Feb 18 16:42:58 2025

Wall Time:        0.48 seconds

                                                       Time (seconds)
Module                                       User      System        Wall        Calls

--------------------------------------------------------------------------------------

**************************************************************************************

Host: debianlab

Timers On : Tue Feb 18 16:44:24 2025
Timers Off: Tue Feb 18 16:44:24 2025

Wall Time:        0.36 seconds

                                                       Time (seconds)
Module                                       User      System        Wall        Calls

--------------------------------------------------------------------------------------

**************************************************************************************

Host: debianlab

Timers On : Tue Feb 18 16:45:10 2025
Timers Off: Tue Feb 18 16:45:10 2025

Wall Time:        0.37 seconds

                                                       Time (seconds)
Module                                       User      System        Wall        Calls

--------------------------------------------------------------------------------------

**************************************************************************************

Host: debianlab

Timers On : Tue Feb 18 16:45:40 2025
Timers Off: Tue Feb 18 16:45:41 2025

Wall Time:        0.35 seconds

                                                       Time (seconds)
Module                                       User      System        Wall        Calls

--------------------------------------------------------------------------------------

**************************************************************************************

Host: debianlab

Timers On : Tue Feb 18 16:45:45 2025
Timers Off: Tue Feb 18 16:45:45 2025

Wall Time:        0.35 seconds

                                                       Time (seconds)
Module                                       User      System        Wall        Calls

--------------------------------------------------------------------------------------

**************************************************************************************

Host: debianlab

Timers On : Tue Feb 18 16:46:09 2025
Timers Off: Tue Feb 18 16:46:10 2025

Wall Time:        0.36 seconds

                                                       Time (seconds)
Module                                       User      System        Wall        Calls

--------------------------------------------------------------------------------------

**************************************************************************************
