
Host: debianlab

Timers On : Tue Feb 18 16:42:57 2025
Timers Off: Tue Feb 18 16:42:58 2025

Wall Time:        0.48 seconds

                                                       Time (seconds)
Module                                       User      System        Wall        Calls

--------------------------------------------------------------------------------------

**************************************************************************************

Host: debianlab

Timers On : Tue Feb 18 16:44:24 2025
Timers Off: Tue Feb 18 16:44:24 2025

Wall Time:        0.36 seconds

                                                       Time (seconds)
Module                                       User      System        Wall        Calls

--------------------------------------------------------------------------------------

**************************************************************************************

Host: debianlab

Timers On : Tue Feb 18 16:45:10 2025
Timers Off: Tue Feb 18 16:45:10 2025

Wall Time:        0.37 seconds

                                                       Time (seconds)
Module                                       User      System        Wall        Calls

--------------------------------------------------------------------------------------

**************************************************************************************

Host: debianlab

Timers On : Tue Feb 18 16:45:40 2025
Timers Off: Tue Feb 18 16:45:41 2025

Wall Time:        0.35 seconds

                                                       Time (seconds)
Module                                       User      System        Wall        Calls

--------------------------------------------------------------------------------------

**************************************************************************************

Host: debianlab

Timers On : Tue Feb 18 16:45:45 2025
Timers Off: Tue Feb 18 16:45:45 2025

Wall Time:        0.35 seconds

                                                       Time (seconds)
Module                                       User      System        Wall        Calls

--------------------------------------------------------------------------------------

**************************************************************************************

Host: debianlab

Timers On : Tue Feb 18 16:46:09 2025
Timers Off: Tue Feb 18 16:46:10 2025

Wall Time:        0.36 seconds

                                                       Time (seconds)
Module                                       User      System        Wall        Calls

--------------------------------------------------------------------------------------

**************************************************************************************

Host: debianlab

Timers On : Mon Feb 24 11:20:55 2025
Timers Off: Mon Feb 24 11:20:55 2025

Wall Time:        0.45 seconds

                                                       Time (seconds)
Module                                       User      System        Wall        Calls

--------------------------------------------------------------------------------------

**************************************************************************************

Host: debianlab

Timers On : Mon Feb 24 11:22:12 2025
Timers Off: Mon Feb 24 11:22:13 2025

Wall Time:        0.36 seconds

                                                       Time (seconds)
Module                                       User      System        Wall        Calls

--------------------------------------------------------------------------------------

**************************************************************************************

Host: debianlab

Timers On : Thu Feb 27 08:48:57 2025
Timers Off: Thu Feb 27 08:48:57 2025

Wall Time:        0.34 seconds

                                                       Time (seconds)
Module                                       User      System        Wall        Calls

--------------------------------------------------------------------------------------

**************************************************************************************

Host: debianlab

Timers On : Thu Feb 27 08:51:54 2025
Timers Off: Thu Feb 27 08:51:56 2025

Wall Time:        1.85 seconds

                                                       Time (seconds)
Module                                       User      System        Wall        Calls

--------------------------------------------------------------------------------------

**************************************************************************************

Host: debianlab

Timers On : Thu Feb 27 08:53:24 2025
Timers Off: Thu Feb 27 08:53:25 2025

Wall Time:        0.45 seconds

                                                       Time (seconds)
Module                                       User      System        Wall        Calls

--------------------------------------------------------------------------------------

**************************************************************************************

Host: debianlab

Timers On : Thu Feb 27 08:54:05 2025
Timers Off: Thu Feb 27 08:54:05 2025

Wall Time:        0.44 seconds

                                                       Time (seconds)
Module                                       User      System        Wall        Calls

--------------------------------------------------------------------------------------

**************************************************************************************

Host: debianlab

Timers On : Thu Feb 27 08:54:24 2025
Timers Off: Thu Feb 27 08:54:25 2025

Wall Time:        1.14 seconds

                                                       Time (seconds)
Module                                       User      System        Wall        Calls

--------------------------------------------------------------------------------------

**************************************************************************************

Host: debianlab

Timers On : Thu Feb 27 08:56:00 2025
Timers Off: Thu Feb 27 08:56:01 2025

Wall Time:        1.05 seconds

                                                       Time (seconds)
Module                                       User      System        Wall        Calls

--------------------------------------------------------------------------------------

**************************************************************************************

Host: debianlab

Timers On : Thu Feb 27 08:56:13 2025
Timers Off: Thu Feb 27 08:56:15 2025

Wall Time:        2.12 seconds

                                                       Time (seconds)
Module                                       User      System        Wall        Calls

--------------------------------------------------------------------------------------

**************************************************************************************

Host: debianlab

Timers On : Thu Feb 27 09:00:23 2025
Timers Off: Thu Feb 27 09:02:41 2025

Wall Time:      137.43 seconds

                                                       Time (seconds)
Module                                       User      System        Wall        Calls

--------------------------------------------------------------------------------------

**************************************************************************************

Host: debianlab

Timers On : Thu Feb 27 09:03:03 2025
Timers Off: Thu Feb 27 09:03:09 2025

Wall Time:        5.47 seconds

                                                       Time (seconds)
Module                                       User      System        Wall        Calls

--------------------------------------------------------------------------------------

**************************************************************************************

Host: debianlab

Timers On : Thu Feb 27 09:25:42 2025
Timers Off: Thu Feb 27 09:41:55 2025

Wall Time:      973.55 seconds

                                                       Time (seconds)
Module                                       User      System        Wall        Calls

--------------------------------------------------------------------------------------

**************************************************************************************

Host: debianlab

Timers On : Thu Feb 27 09:42:02 2025
Timers Off: Thu Feb 27 09:42:26 2025

Wall Time:       24.42 seconds

                                                       Time (seconds)
Module                                       User      System        Wall        Calls

--------------------------------------------------------------------------------------

**************************************************************************************

Host: debianlab

Timers On : Thu Feb 27 10:22:33 2025
Timers Off: Thu Feb 27 10:24:48 2025

Wall Time:      135.45 seconds

                                                       Time (seconds)
Module                                       User      System        Wall        Calls

--------------------------------------------------------------------------------------

**************************************************************************************

Host: debianlab

Timers On : Thu Feb 27 10:34:25 2025
Timers Off: Thu Feb 27 10:34:26 2025

Wall Time:        0.29 seconds

                                                       Time (seconds)
Module                                       User      System        Wall        Calls

--------------------------------------------------------------------------------------

**************************************************************************************

Host: debianlab

Timers On : Thu Feb 27 10:35:07 2025
Timers Off: Thu Feb 27 10:35:15 2025

Wall Time:        8.82 seconds

                                                       Time (seconds)
Module                                       User      System        Wall        Calls

--------------------------------------------------------------------------------------

**************************************************************************************

Host: debianlab

Timers On : Thu Feb 27 10:35:22 2025
Timers Off: Thu Feb 27 10:51:30 2025

Wall Time:      968.76 seconds

                                                       Time (seconds)
Module                                       User      System        Wall        Calls

--------------------------------------------------------------------------------------

**************************************************************************************

Host: debianlab

Timers On : Fri Mar  7 16:49:02 2025
Timers Off: Fri Mar  7 16:49:03 2025

Wall Time:        0.60 seconds

                                                       Time (seconds)
Module                                       User      System        Wall        Calls

--------------------------------------------------------------------------------------

**************************************************************************************

Host: debianlab

Timers On : Fri Mar  7 16:49:26 2025
Timers Off: Fri Mar  7 16:49:27 2025

Wall Time:        1.12 seconds

                                                       Time (seconds)
Module                                       User      System        Wall        Calls

--------------------------------------------------------------------------------------

**************************************************************************************

Host: debianlab

Timers On : Fri Mar  7 16:49:41 2025
Timers Off: Fri Mar  7 16:49:41 2025

Wall Time:        0.52 seconds

                                                       Time (seconds)
Module                                       User      System        Wall        Calls

--------------------------------------------------------------------------------------

**************************************************************************************

Host: debianlab

Timers On : Fri Mar  7 16:50:15 2025
Timers Off: Fri Mar  7 16:50:17 2025

Wall Time:        1.33 seconds

                                                       Time (seconds)
Module                                       User      System        Wall        Calls

--------------------------------------------------------------------------------------

**************************************************************************************

Host: debianlab

Timers On : Fri Mar  7 16:51:00 2025
Timers Off: Fri Mar  7 16:51:01 2025

Wall Time:        1.12 seconds

                                                       Time (seconds)
Module                                       User      System        Wall        Calls

--------------------------------------------------------------------------------------

**************************************************************************************

Host: debianlab

Timers On : Fri Mar  7 16:51:21 2025
Timers Off: Fri Mar  7 16:51:22 2025

Wall Time:        1.19 seconds

                                                       Time (seconds)
Module                                       User      System        Wall        Calls

--------------------------------------------------------------------------------------

**************************************************************************************

Host: debianlab

Timers On : Fri Mar  7 16:53:29 2025
Timers Off: Fri Mar  7 16:53:30 2025

Wall Time:        1.26 seconds

                                                       Time (seconds)
Module                                       User      System        Wall        Calls

--------------------------------------------------------------------------------------

**************************************************************************************

Host: debianlab

Timers On : Fri Mar  7 16:54:02 2025
Timers Off: Fri Mar  7 16:54:03 2025

Wall Time:        0.98 seconds

                                                       Time (seconds)
Module                                       User      System        Wall        Calls

--------------------------------------------------------------------------------------

**************************************************************************************

Host: debianlab

Timers On : Fri Mar  7 16:56:25 2025
Timers Off: Fri Mar  7 16:56:26 2025

Wall Time:        1.25 seconds

                                                       Time (seconds)
Module                                       User      System        Wall        Calls

--------------------------------------------------------------------------------------

**************************************************************************************

Host: debianlab

Timers On : Fri Mar  7 16:56:31 2025
Timers Off: Fri Mar  7 16:56:33 2025

Wall Time:        1.25 seconds

                                                       Time (seconds)
Module                                       User      System        Wall        Calls

--------------------------------------------------------------------------------------

**************************************************************************************

Host: debianlab

Timers On : Fri Mar  7 17:07:52 2025
Timers Off: Fri Mar  7 17:07:53 2025

Wall Time:        1.17 seconds

                                                       Time (seconds)
Module                                       User      System        Wall        Calls

--------------------------------------------------------------------------------------

**************************************************************************************
