
    -----------------------------------------------------------------------
          Psi4: An Open-Source Ab Initio Electronic Structure Package
                               Psi4 1.9.1 release

                         Git: Rev {HEAD} f53cdd7 


    D. G. A. Smith, L. A. Burns, A. C. Simmonett, R. M. Parrish,
    M. C. Schieber, R. Galvelis, P. Kraus, H. Kruse, R. Di Remigio,
    A. Alenaizan, A. M. James, S. Lehtola, J. P. Misiewicz, M. Scheurer,
    R. A. Shaw, J. B. Schriber, Y. Xie, Z. L. Glick, D. A. Sirianni,
    J. S. O'Brien, J. M. Waldrop, A. Kumar, E. G. Hohenstein,
    B. P. Pritchard, B. R. Brooks, H. F. Schaefer III, A. Yu. Sokolov,
    K. Patkowski, A. E. DePrince III, U. Bozkaya, R. A. King,
    F. A. Evangelista, J. M. Turney, T. D. Crawford, C. D. Sherrill,
    J. Chem. Phys. 152(18) 184108 (2020). https://doi.org/10.1063/5.0006002

                            Additional Code Authors
    E. T. Seidl, C. L. Janssen, E. F. Valeev, M. L. Leininger,
    J. F. Gonthier, R. M. Richard, H. R. McAlexander, M. Saitow, X. Wang,
    P. Verma, M. H. Lechner, A. Jiang, S. Behnle, A. G. Heide,
    M. F. Herbst, and D. L. Poole

             Previous Authors, Complete List of Code Contributors,
                       and Citations for Specific Modules
    https://github.com/psi4/psi4/blob/master/codemeta.json
    https://github.com/psi4/psi4/graphs/contributors
    http://psicode.org/psi4manual/master/introduction.html#citing-psifour

    -----------------------------------------------------------------------


    Psi4 started on: Saturday, 10 May 2025 10:02AM

    Process ID: 3140623
    Host:       debianlab
    PSIDATADIR: /home/sydong/install_tutorial/psi4/share/psi4
    Memory:     500.0 MiB
    Threads:    1
    Molecule: geometry: Molecule is not complete, please use 'update_geometry'
                    once all variables are set.
Molecule: Setting geometry variable r_ch to 2.102300
Molecule: Setting geometry variable ahch to 101.710000

Scratch directory: /home/sydong/scratch/psi4/

  Forte
  ----------------------------------------------------------------------------
  A suite of quantum chemistry methods for strongly correlated electrons

    git branch: ct_forte - git commit: 41562031

  Developed by:
    Francesco A. Evangelista, Chenyang Li, Kevin P. Hannon,
    Jeffrey B. Schriber, Tianyuan Zhang, Chenxi Cai,
    Nan He, Nicholas Stair, Shuhe Wang, Renke Huang
  ----------------------------------------------------------------------------

  Forte will use options passed as a dictionary. Option read from psi4 will be ignored

  Forte will use custom integrals
  Preparing forte objects from a custom source

  Reading integral information from FCIDUMP file TEST.DUMP

  ==> MO Space Information <==

  -------------------------------
                        A   Sum
  -------------------------------
    FROZEN_DOCC         0     0
    RESTRICTED_DOCC     1     1
    GAS1                6     6
    GAS2                0     0
    GAS3                0     0
    GAS4                0     0
    GAS5                0     0
    GAS6                0     0
    RESTRICTED_UOCC    17    17
    FROZEN_UOCC         0     0
    Total              24    24
  -------------------------------

  ==> Integral Transformation <==

  Number of molecular orbitals:                         24
  Number of correlated molecular orbitals:              24
  Number of frozen occupied orbitals:                    0
  Number of frozen unoccupied orbitals:                  0
  Two-electron integral type:                       Custom


  Timing for freezing core and virtual orbitals:              0.000 s.
  Timing for preparing custom integrals:                      0.001 s.

          -----------------------------------------------------------
                  Multi-Configurational Self Consistent Field
                Two-Step Approximate Second-Order AO Algorithm
            written by Chenyang Li, Kevin P. Hannon, and Shuhe Wang
          -----------------------------------------------------------


  ==> MCSCF Calculation Information <==

    --------------------------------------------------------
    Print level                                      Default
    Integral type                                    FCIDUMP
    CI solver type                                       FCI
    Final orbital type                             CANONICAL
    Derivative type                                     NONE
    Optimize orbitals                                   TRUE
    Include internal rotations                         FALSE
    Debug printing                                     FALSE
    Energy convergence                             1.000e-08
    Gradient convergence                           1.000e-07
    Max value for rotation                         2.000e-01
    Max number of macro iter.                            100
    Max number of micro iter. for orbitals                 6
    Max number of micro iter. for CI                      12
    DIIS start                                            15
    Min DIIS vectors                                       3
    Max DIIS vectors                                       8
    Frequency of DIIS extrapolation                        1
    --------------------------------------------------------

  ==> Independent Orbital Rotations <==

    ORBITAL SPACES                         A
    ----------------------------------------
             ACTIVE / RESTRICTED_DOCC      6
    RESTRICTED_UOCC /          ACTIVE    102
    RESTRICTED_UOCC / RESTRICTED_DOCC     17
    ----------------------------------------

  ==> String Lists <==

    --------------------------------------------------------
    number of alpha electrons                              3
    number of beta electrons                               3
    number of alpha strings                               20
    number of beta strings                                20
    --------------------------------------------------------

  ==> FCI Solver <==

    --------------------------------------------------------
    Spin adapt                                         FALSE
    Number of determinants                               400
    Symmetry                                               0
    Multiplicity                                           1
    Number of roots                                        1
    Target root                                            0
    --------------------------------------------------------
  Initial guess space is incomplete.
  Adding 5 determinant(s).

  ==> Initial Guess <==

  Initial guess determinants:         55

  Classification of the initial guess solutions

  Number   2S+1   Selected
  ------------------------
    26       1       *
    26       3        
     3       5        
  ------------------------

    Spin    Root           Energy        <S^2>    Status
  -------------------------------------------------------
   singlet    0      -38.899897414174  -0.000000  added
  -------------------------------------------------------

  ==> Davidson-Liu Solver <==

    --------------------------------------------------------
    Print level                                      Default
    Energy convergence threshold                   1.000e-08
    Residual convergence threshold                 1.000e-06
    Schmidt orthogonality threshold                1.000e-12
    Schmidt discard threshold                      1.000e-07
    Size of the space                                    400
    Number of roots                                        1
    Maximum number of iterations                         100
    Collapse subspace size                                 2
    Maximum subspace size                                 10
    --------------------------------------------------------

  Davidson-Liu solver: adding 1 guess vectors
  Iteration     Average Energy            max(∆E)            max(Residual)  Vectors
  ---------------------------------------------------------------------------------
       0      -38.899897414174       38.899897414174        0.267536544265      1
       1      -38.939306157747        0.039408743573        0.057090501103      2
       2      -38.940762264727        0.001456106981        0.010839450956      3
       3      -38.940818805866        0.000056541139        0.002333180834      4
       4      -38.940821966122        0.000003160256        0.000505679705      5
       5      -38.940822082464        0.000000116342        0.000090646446      6
       6      -38.940822086710        0.000000004246        0.000019381872      7
       7      -38.940822086926        0.000000000217        0.000004213453      8
       8      -38.940822086935        0.000000000009        0.000000778849      9
  ---------------------------------------------------------------------------------

  ==> Root No. 0 <==

    222000     -0.96763013
    220200      0.17859471
    202020      0.07210273
    b2a200      0.06286220
    a2b200      0.06286220
    022200      0.04441562
    022002      0.04245575
    ab20ab     -0.03907007
    ba20ba     -0.03907007
    202002      0.03761809
    2ba0ab      0.03335950
    2ab0ba      0.03335950
    220020      0.03116392
    b2a002     -0.03043275
    a2b002     -0.03043275
    ba20ab     -0.02900004
    ab20ba     -0.02900004
    2ba0ba      0.02428388
    2ab0ab      0.02428388
    220002      0.02374903
    022020      0.02158165
    200220     -0.01369246
    020202     -0.01286189
    aa20bb     -0.01007003
    bb20aa     -0.01007003

    Total Energy:     -38.940822086935, <S^2>: 0.000000
    Time for FCI:       0.011458390000

  ==> Energy Summary <==

    Multi.(2ms)  Irrep.  No.               Energy      <S^2>
    --------------------------------------------------------
       1  (  0)     A     0      -38.940822086935   0.000000
    --------------------------------------------------------

  ==> Natural Orbitals <==

        2A      1.981905      3A      1.976889      4A      1.911821  
        5A      0.085505      6A      0.023015      7A      0.020865  

 sydong:  unsymmetrize 2RDM


  ==> MCSCF Iterations <==

                      Energy CI                    Energy Orbital
           ------------------------------  ------------------------------
    Iter.        Total Energy       Delta        Total Energy       Delta  Orb. Grad.  Micro
    ----------------------------------------------------------------------------------------
 sydong:  unsymmetrize 2RDM

  Integrals are about to be updated.
  Timing for freezing core and virtual orbitals:              0.000 s.
  Integrals update took     0.038 s.
  Integrals are about to be updated.
  Timing for freezing core and virtual orbitals:              0.000 s.
  Integrals update took     0.034 s.
  Integrals are about to be updated.
  Timing for freezing core and virtual orbitals:              0.000 s.
  Integrals update took     0.034 s.
  Integrals are about to be updated.
  Timing for freezing core and virtual orbitals:              0.000 s.
  Integrals update took     0.033 s.
       1     -38.940822086935 -3.8941e+01    -38.940822086969 -3.8941e+01  6.4855e-07    4/Y

  Initial orbitals are already converged!

  Performing final CI Calculation using converged orbitals

  ==> String Lists <==

    --------------------------------------------------------
    number of alpha electrons                              3
    number of beta electrons                               3
    number of alpha strings                               20
    number of beta strings                                20
    --------------------------------------------------------

  ==> FCI Solver <==

    --------------------------------------------------------
    Spin adapt                                         FALSE
    Number of determinants                               400
    Symmetry                                               0
    Multiplicity                                           1
    Number of roots                                        1
    Target root                                            0
    --------------------------------------------------------

  ==> Davidson-Liu Solver <==

    --------------------------------------------------------
    Print level                                      Default
    Energy convergence threshold                   1.000e-08
    Residual convergence threshold                 1.000e-06
    Schmidt orthogonality threshold                1.000e-12
    Schmidt discard threshold                      1.000e-07
    Size of the space                                    400
    Number of roots                                        1
    Maximum number of iterations                         100
    Collapse subspace size                                 2
    Maximum subspace size                                 10
    --------------------------------------------------------

  Davidson-Liu solver: restarting from previous calculation.
  Iteration     Average Energy            max(∆E)            max(Residual)  Vectors
  ---------------------------------------------------------------------------------
       0      -38.940822086969        0.000000000033        0.000003915937      1
       1      -38.940822086979        0.000000000010        0.000001309693      2
       2      -38.940822086980        0.000000000001        0.000000363880      3
  ---------------------------------------------------------------------------------

  ==> Root No. 0 <==

    222000      0.96762968
    220200     -0.17859645
    202020     -0.07210310
    a2b200     -0.06286234
    b2a200     -0.06286234
    022200     -0.04441603
    022002     -0.04245588
    ab20ab      0.03906974
    ba20ba      0.03906974
    202002     -0.03761866
    2ab0ba     -0.03335940
    2ba0ab     -0.03335940
    220020     -0.03116542
    b2a002      0.03043277
    a2b002      0.03043277
    ab20ba      0.02900002
    ba20ab      0.02900002
    2ba0ba     -0.02428455
    2ab0ab     -0.02428455
    220002     -0.02374869
    022020     -0.02158163
    200220      0.01369273
    020202      0.01286202
    bb20aa      0.01006969
    aa20bb      0.01006969

    Total Energy:     -38.940822086980, <S^2>: -0.000000
    Time for FCI:       0.005160446000

  ==> Energy Summary <==

    Multi.(2ms)  Irrep.  No.               Energy      <S^2>
    --------------------------------------------------------
       1  (  0)     A     0      -38.940822086980  -0.000000
    --------------------------------------------------------

  ==> Natural Orbitals <==

        2A      1.981905      3A      1.976888      4A      1.911820  
        5A      0.085507      6A      0.023015      7A      0.020865  


  Time to prepare integrals:        0.139 seconds
  Time to run job          :        0.186 seconds
  Total                    :        0.324 seconds
