
    -----------------------------------------------------------------------
          Psi4: An Open-Source Ab Initio Electronic Structure Package
                               Psi4 1.9.1 release

                         Git: Rev {HEAD} f53cdd7 


    D. G. A. Smith, L. A. Burns, A. C. Simmonett, R. M. Parrish,
    M. C. Schieber, R. Galvelis, P. Kraus, H. Kruse, R. Di Remigio,
    A. Alenaizan, A. M. James, S. Lehtola, J. P. Misiewicz, M. Scheurer,
    R. A. Shaw, J. B. Schriber, Y. Xie, Z. L. Glick, D. A. Sirianni,
    J. S. O'Brien, J. M. Waldrop, A. Kumar, E. G. Hohenstein,
    B. P. Pritchard, B. R. Brooks, H. F. Schaefer III, A. Yu. Sokolov,
    K. Patkowski, A. E. DePrince III, U. Bozkaya, R. A. King,
    F. A. Evangelista, J. M. Turney, T. D. Crawford, C. D. Sherrill,
    J. Chem. Phys. 152(18) 184108 (2020). https://doi.org/10.1063/5.0006002

                            Additional Code Authors
    E. T. Seidl, C. L. Janssen, E. F. Valeev, M. L. Leininger,
    J. F. Gonthier, R. M. Richard, H. R. McAlexander, M. Saitow, X. Wang,
    P. Verma, M. H. Lechner, A. Jiang, S. Behnle, A. G. Heide,
    M. F. Herbst, and D. L. Poole

             Previous Authors, Complete List of Code Contributors,
                       and Citations for Specific Modules
    https://github.com/psi4/psi4/blob/master/codemeta.json
    https://github.com/psi4/psi4/graphs/contributors
    http://psicode.org/psi4manual/master/introduction.html#citing-psifour

    -----------------------------------------------------------------------


    Psi4 started on: Friday, 09 May 2025 05:29PM

    Process ID: 3961085
    Host:       hydrogen
    PSIDATADIR: /data/home/sydong/opt/psi4/share/psi4
    Memory:     500.0 MiB
    Threads:    1
    Molecule: geometry: Molecule is not complete, please use 'update_geometry'
                    once all variables are set.
Molecule: Setting geometry variable r_ch to 2.102300
Molecule: Setting geometry variable ahch to 101.710000

Scratch directory: /data/home/sydong/scratch/psi4/
   => Libint2 <=

    Primary   basis highest AM E, G, H:  6, 6, 3
    Auxiliary basis highest AM E, G, H:  7, 7, 4
    Onebody   basis highest AM E, G, H:  -, -, -
    Solid Harmonics ordering:            Gaussian

*** tstart() called on hydrogen
*** at Fri May  9 17:29:14 2025

   => Loading Basis Set <=

    Name: CC-PVDZ-F12
    Role: ORBITAL
    Keyword: BASIS
    atoms 1   entry C          line   170 file /data/home/sydong/opt/psi4/share/psi4/basis/cc-pvdz-f12.gbs 
    atoms 2-3 entry H          line    12 file /data/home/sydong/opt/psi4/share/psi4/basis/cc-pvdz-f12.gbs 


         ---------------------------------------------------------
                                   SCF
               by Justin Turney, Rob Parrish, Andy Simmonett
                          and Daniel G. A. Smith
                              RHF Reference
                        1 Threads,    500 MiB Core
         ---------------------------------------------------------

  ==> Geometry <==

    Molecular point group: c1
    Full point group: C2v

    Geometry (in Bohr), charge = 0, multiplicity = 1:

       Center              X                  Y                   Z               Mass       
    ------------   -----------------  -----------------  -----------------  -----------------
         C            0.000000000000     0.000000000000    -0.190863170104    12.000000000000
         H            0.000000000000    -1.630440522826     1.136287534046     1.007825032230
         H            0.000000000000     1.630440522826     1.136287534046     1.007825032230

  Running in c1 symmetry.

  Rotational constants: A =     19.80481  B =     11.23490  C =      7.16840 [cm^-1]
  Rotational constants: A = 593733.17106  B = 336813.79877  C = 214903.20347 [MHz]
  Nuclear repulsion =    6.014699644935847

  Charge       = 0
  Multiplicity = 1
  Electrons    = 8
  Nalpha       = 4
  Nbeta        = 4

  ==> Algorithm <==

  SCF Algorithm Type is PK.
  DIIS enabled.
  MOM disabled.
  Fractional occupation disabled.
  Guess Type is SAD.
  Energy threshold   = 1.00e-10
  Density threshold  = 1.00e-08
  Integral threshold = 1.00e-12

  ==> Primary Basis <==

  Basis Set: CC-PVDZ-F12
    Blend: CC-PVDZ-F12
    Number of shells: 22
    Number of basis functions: 48
    Number of Cartesian functions: 50
    Spherical Harmonics?: true
    Max angular momentum: 2

  ==> Integral Setup <==

  Using in-core PK algorithm.
   Calculation information:
      Number of atoms:                   3
      Number of AO shells:              22
      Number of primitives:             41
      Number of atomic orbitals:        50
      Number of basis functions:        48

      Integral cutoff                 1.00e-12
      Number of threads:                 1

  Performing in-core PK
  Using 1384152 doubles for integral storage.
  We computed 32131 shell quartets total.
  Whereas there are 32131 unique shell quartets.

  ==> DiskJK: Disk-Based J/K Matrices <==

    J tasked:                  Yes
    K tasked:                  Yes
    wK tasked:                  No
    Memory [MiB]:              375
    Schwarz Cutoff:          1E-12

    OpenMP threads:              1

  Minimum eigenvalue in the overlap matrix is 3.1200075401E-03.
  Reciprocal condition number of the overlap matrix is 5.5294913187E-04.
    Using symmetric orthogonalization.

  ==> Pre-Iterations <==

  SCF Guess: Superposition of Atomic Densities via on-the-fly atomic UHF (no occupation information).

   -------------------------
    Irrep   Nso     Nmo    
   -------------------------
     A         48      48 
   -------------------------
    Total      48      48
   -------------------------

  ==> Iterations <==

                        Total Energy        Delta E     RMS |[F,P]|

   @RHF iter SAD:   -38.15612299453069   -3.81561e+01   0.00000e+00 
   @RHF iter   1:   -38.87945122910550   -7.23328e-01   2.70278e-03 ADIIS/DIIS
   @RHF iter   2:   -38.89146258122322   -1.20114e-02   6.77072e-04 ADIIS/DIIS
   @RHF iter   3:   -38.89220018713830   -7.37606e-04   1.89164e-04 ADIIS/DIIS
   @RHF iter   4:   -38.89230033057817   -1.00143e-04   4.06457e-05 DIIS
   @RHF iter   5:   -38.89230480796007   -4.47738e-06   7.98811e-06 DIIS
   @RHF iter   6:   -38.89230504020703   -2.32247e-07   7.60843e-07 DIIS
   @RHF iter   7:   -38.89230504240127   -2.19423e-09   1.61256e-07 DIIS
   @RHF iter   8:   -38.89230504250366   -1.02389e-10   2.23643e-08 DIIS
   @RHF iter   9:   -38.89230504250601   -2.35190e-12   2.80159e-09 DIIS
  Energy and wave function converged.


  ==> Post-Iterations <==

    Orbital Energies [Eh]
    ---------------------

    Doubly Occupied:                                                      

       1A    -11.294851     2A     -0.892023     3A     -0.563553  
       4A     -0.396785  

    Virtual:                                                              

       5A      0.025211     6A      0.071587     7A      0.091461  
       8A      0.112599     9A      0.131442    10A      0.236712  
      11A      0.249083    12A      0.469605    13A      0.511518  
      14A      0.566557    15A      0.581956    16A      0.592445  
      17A      0.622414    18A      0.640533    19A      0.678080  
      20A      0.692547    21A      0.905078    22A      1.047336  
      23A      1.087516    24A      1.088562    25A      1.117266  
      26A      1.246480    27A      1.353909    28A      1.463228  
      29A      2.223411    30A      2.381881    31A      2.528290  
      32A      2.634970    33A      2.719495    34A      2.798070  
      35A      2.817298    36A      2.875636    37A      3.085097  
      38A      3.185367    39A      3.197013    40A      3.390212  
      41A      3.392160    42A      3.560846    43A      3.945784  
      44A      4.331107    45A      6.645570    46A      9.183110  
      47A      9.520196    48A      9.706291  

    Final Occupation by Irrep:
              A 
    DOCC [     4 ]
    NA   [     4 ]
    NB   [     4 ]

  @RHF Final Energy:   -38.89230504250601

   => Energetics <=

    Nuclear Repulsion Energy =              6.0146996449358472
    One-Electron Energy =                 -63.5195853602797982
    Two-Electron Energy =                  18.6125806728379466
    Total Energy =                        -38.8923050425060097

Computation Completed


Properties will be evaluated at   0.000000,   0.000000,   0.000000 [a0]

Properties computed using the SCF density matrix


 Multipole Moments:

 ------------------------------------------------------------------------------------
     Multipole            Electronic (a.u.)      Nuclear  (a.u.)        Total (a.u.)
 ------------------------------------------------------------------------------------

 L = 1.  Multiply by 2.5417464519 to convert [e a0] to [Debye]
 Dipole X            :          0.0000000            0.0000000            0.0000000
 Dipole Y            :         -0.0000000            0.0000000           -0.0000000
 Dipole Z            :         -0.3622895            1.1273960            0.7651065
 Magnitude           :                                                    0.7651065

 ------------------------------------------------------------------------------------

*** tstop() called on hydrogen at Fri May  9 17:29:15 2025
Module time:
	user time   =       0.37 seconds =       0.01 minutes
	system time =       0.10 seconds =       0.00 minutes
	total time  =          1 seconds =       0.02 minutes
Total time:
	user time   =       0.37 seconds =       0.01 minutes
	system time =       0.10 seconds =       0.00 minutes
	total time  =          1 seconds =       0.02 minutes

Scratch directory: /data/home/sydong/scratch/psi4/

  Forte
  ----------------------------------------------------------------------------
  A suite of quantum chemistry methods for strongly correlated electrons

    git branch: ct_forte - git commit: 41562031

  Developed by:
    Francesco A. Evangelista, Chenyang Li, Kevin P. Hannon,
    Jeffrey B. Schriber, Tianyuan Zhang, Chenxi Cai,
    Nan He, Nicholas Stair, Shuhe Wang, Renke Huang
  ----------------------------------------------------------------------------

  Forte will use options passed as a dictionary. Option read from psi4 will be ignored


  Preparing forte objects from a Psi4 Wavefunction object Using basis set CC-PVDZ-F12 from Psi4 global options.   => Loading Basis Set <=

    Name: CC-PVDZ-F12
    Role: ORBITAL
    Keyword: BASIS
    atoms 1   entry C          line   170 file /data/home/sydong/opt/psi4/share/psi4/basis/cc-pvdz-f12.gbs 
    atoms 2-3 entry H          line    12 file /data/home/sydong/opt/psi4/share/psi4/basis/cc-pvdz-f12.gbs 



  ==> MO Space Information <==

  -------------------------------
                        A   Sum
  -------------------------------
    FROZEN_DOCC         1     1
    RESTRICTED_DOCC     0     0
    GAS1                6     6
    GAS2                0     0
    GAS3                0     0
    GAS4                0     0
    GAS5                0     0
    GAS6                0     0
    RESTRICTED_UOCC    41    41
    FROZEN_UOCC         0     0
    Total              48    48
  -------------------------------   => Loading Basis Set <=

    Name: STO-3G
    Role: ORBITAL
    Keyword: MINAO_BASIS
    atoms 1   entry C          line    61 file /data/home/sydong/opt/psi4/share/psi4/basis/sto-3g.gbs 
    atoms 2-3 entry H          line    19 file /data/home/sydong/opt/psi4/share/psi4/basis/sto-3g.gbs 


  State Singlet (Ms = 0) A GAS min: 0 0 0 0 0 0 ; GAS max: 12 0 0 0 0 0 ; weights:
      1.000000000000
  Forte will use psi4 integrals

  ==> Primary Basis Set Summary <==

  Basis Set: CC-PVDZ-F12
    Blend: CC-PVDZ-F12
    Number of shells: 22
    Number of basis functions: 48
    Number of Cartesian functions: 50
    Spherical Harmonics?: true
    Max angular momentum: 2


  JK created using conventional PK integrals
  Using in-core PK algorithm.
   Calculation information:
      Number of atoms:                   3
      Number of AO shells:              22
      Number of primitives:             41
      Number of atomic orbitals:        50
      Number of basis functions:        48

      Integral cutoff                 1.00e-12
      Number of threads:                 1

  Performing in-core PK
  Using 1384152 doubles for integral storage.
  We computed 32131 shell quartets total.
  Whereas there are 32131 unique shell quartets.

  ==> DiskJK: Disk-Based J/K Matrices <==

    J tasked:                  Yes
    K tasked:                  Yes
    wK tasked:                  No
    Memory [MiB]:              400
    Schwarz Cutoff:          1E-12

    OpenMP threads:              1



  ==> Integral Transformation <==

  Number of molecular orbitals:                         48
  Number of correlated molecular orbitals:              47
  Number of frozen occupied orbitals:                    1
  Number of frozen unoccupied orbitals:                  0
  Two-electron integral type:                 Conventional


  Computing Conventional Integrals	Presorting SO-basis two-electron integrals.
	Sorting File: SO Ints (nn|nn) nbuckets = 1
	Constructing frozen core operators
	Starting first half-transformation.
	Sorting half-transformed integrals.
	First half integral transformation complete.
	Starting second half-transformation.
	Two-electron integral transformation complete.

  Integral transformation done. 0.11759180 s
  Reading the two-electron integrals from disk
  Size of two-electron integrals:   0.118652 GB
  Timing for conventional integral transformation:            0.517 s.
  Frozen-core energy         -34.262090938118334 a.u.
  Timing for frozen one-body operator:                        0.003 s.
  Resorting integrals after freezing core.
  Timing for freezing core and virtual orbitals:              0.328 s.
  Timing for computing conventional integrals:                0.845 s.

          -----------------------------------------------------------
                  Multi-Configurational Self Consistent Field
                Two-Step Approximate Second-Order AO Algorithm
            written by Chenyang Li, Kevin P. Hannon, and Shuhe Wang
          -----------------------------------------------------------


  ==> MCSCF Calculation Information <==

    --------------------------------------------------------
    Print level                                      Default
    Integral type                               CONVENTIONAL
    CI solver type                                       FCI
    Final orbital type                             CANONICAL
    Derivative type                                     NONE
    Optimize orbitals                                   TRUE
    Include internal rotations                         FALSE
    Debug printing                                     FALSE
    Energy convergence                             1.000e-10
    Gradient convergence                           1.000e-06
    Max value for rotation                         2.000e-01
    Max number of macro iter.                            100
    Max number of micro iter. for orbitals                 6
    Max number of micro iter. for CI                      12
    DIIS start                                            15
    Min DIIS vectors                                       3
    Max DIIS vectors                                       8
    Frequency of DIIS extrapolation                        1
    --------------------------------------------------------

  ==> Independent Orbital Rotations <==

    ORBITAL SPACES                         A
    ----------------------------------------
             ACTIVE / RESTRICTED_DOCC      0
    RESTRICTED_UOCC /          ACTIVE    246
    RESTRICTED_UOCC / RESTRICTED_DOCC      0
    ----------------------------------------

  ==> String Lists <==

    --------------------------------------------------------
    number of alpha electrons                              3
    number of beta electrons                               3
    number of alpha strings                               20
    number of beta strings                                20
    --------------------------------------------------------

  ==> FCI Solver <==

    --------------------------------------------------------
    Spin adapt                                         FALSE
    Number of determinants                               400
    Symmetry                                               0
    Multiplicity                                           1
    Number of roots                                        1
    Target root                                            0
    --------------------------------------------------------
  Initial guess space is incomplete.
  Adding 8 determinant(s).

  ==> Initial Guess <==

  Initial guess determinants:         58

  Classification of the initial guess solutions

  Number   2S+1   Selected
  ------------------------
    27       1       *
    27       3        
     4       5        
  ------------------------

    Spin    Root           Energy        <S^2>    Status
  -------------------------------------------------------
   singlet    0      -73.156049023866  -0.000000  added
  -------------------------------------------------------

  ==> Davidson-Liu Solver <==

    --------------------------------------------------------
    Print level                                      Default
    Energy convergence threshold                   1.000e-10
    Residual convergence threshold                 1.000e-08
    Schmidt orthogonality threshold                1.000e-12
    Schmidt discard threshold                      1.000e-07
    Size of the space                                    400
    Number of roots                                        1
    Maximum number of iterations                         100
    Collapse subspace size                                 2
    Maximum subspace size                                 10
    --------------------------------------------------------

  Davidson-Liu solver: adding 1 guess vectors
  Iteration     Average Energy            max(∆E)            max(Residual)  Vectors
  ---------------------------------------------------------------------------------
       0      -38.893958085747       38.893958085747        0.039948300711      1
       1      -38.895076406410        0.001118320663        0.005353447722      2
       2      -38.895113375234        0.000036968824        0.001424876757      3
       3      -38.895115423576        0.000002048342        0.000217970579      4
       4      -38.895115461753        0.000000038177        0.000030706376      5
       5      -38.895115462329        0.000000000576        0.000003369508      6
       6      -38.895115462334        0.000000000005        0.000000294669      7
       7      -38.895115462334        0.000000000000        0.000000033586      8
       8      -38.895115462334        0.000000000000        0.000000003987      9
  ---------------------------------------------------------------------------------

  ==> Root No. 0 <==

    222000      0.99829416
    220200     -0.04380688
    022200     -0.02721474
    b2a200      0.01605318
    a2b200      0.01605318
    202200     -0.01015320

    Total Energy:     -38.895115462334, <S^2>: -0.000000
    Time for FCI:       0.020945299000

  ==> Energy Summary <==

    Multi.(2ms)  Irrep.  No.               Energy      <S^2>
    --------------------------------------------------------
       1  (  0)     A     0      -38.895115462334  -0.000000
    --------------------------------------------------------
  Computing RDMs for dipole moments ... Done

  ==> Summary of Dipole Moments [e a0] (Nuclear + Electronic) <==

       State           DM_X           DM_Y           DM_Z           |DM|
    --------------------------------------------------------------------
          0A     0.00000000    -0.00000000     0.76017454     0.76017454
    --------------------------------------------------------------------
     Nuclear     0.00000000     0.00000000     1.12739605     1.12739605
    --------------------------------------------------------------------

  ==> Natural Orbitals <==

        2A      1.999687      3A      1.999250      4A      1.994248  
        5A      0.006563      6A      0.000151      7A      0.000100  

 sydong:  unsymmetrize 2RDM


  ==> MCSCF Iterations <==

                      Energy CI                    Energy Orbital
           ------------------------------  ------------------------------
    Iter.        Total Energy       Delta        Total Energy       Delta  Orb. Grad.  Micro
    ----------------------------------------------------------------------------------------
 sydong:  unsymmetrize 2RDM

  L-BFGS Warning: Skip this vector due to negative rho
  L-BFGS Warning: Skip this vector due to negative rho
  L-BFGS Warning: Skip this vector due to negative rho
       1     -38.895115462334 -3.8895e+01    -38.908420701017 -3.8908e+01  9.2369e-04    6/N

  Davidson-Liu solver: restarting from previous calculation.
 sydong:  unsymmetrize 2RDM

       2     -38.941903269033 -4.6788e-02    -38.949384511530 -4.0964e-02  1.1247e-03    6/N

  Davidson-Liu solver: restarting from previous calculation.
 sydong:  unsymmetrize 2RDM

       3     -38.952521923181 -1.0619e-02    -38.953240899603 -3.8564e-03  2.2192e-05    6/N

  Davidson-Liu solver: restarting from previous calculation.
 sydong:  unsymmetrize 2RDM

       4     -38.953494003594 -9.7208e-04    -38.953571717538 -3.3082e-04  7.1854e-06    6/N

  Davidson-Liu solver: restarting from previous calculation.
 sydong:  unsymmetrize 2RDM

       5     -38.953599183263 -1.0518e-04    -38.953608756875 -3.7039e-05  3.2893e-06    6/N

  Davidson-Liu solver: restarting from previous calculation.
 sydong:  unsymmetrize 2RDM

       6     -38.953612229324 -1.3046e-05    -38.953613491040 -4.7342e-06  1.2669e-06    6/N

  Davidson-Liu solver: restarting from previous calculation.
 sydong:  unsymmetrize 2RDM

       7     -38.953613955652 -1.7263e-06    -38.953614127703 -6.3666e-07  4.7678e-07    6/N

  Davidson-Liu solver: restarting from previous calculation.
 sydong:  unsymmetrize 2RDM

       8     -38.953614191813 -2.3616e-07    -38.953614215870 -8.8167e-08  1.7848e-07    5/Y

  Davidson-Liu solver: restarting from previous calculation.
 sydong:  unsymmetrize 2RDM

       9     -38.953614224948 -3.3136e-08    -38.953614228383 -1.2513e-08  6.3200e-08    4/Y

  Davidson-Liu solver: restarting from previous calculation.
 sydong:  unsymmetrize 2RDM

      10     -38.953614229704 -4.7555e-09    -38.953614230199 -1.8160e-09  7.6059e-08    3/Y

  Davidson-Liu solver: restarting from previous calculation.
 sydong:  unsymmetrize 2RDM

      11     -38.953614230394 -6.9011e-10    -38.953614230466 -2.6666e-10  7.7992e-08    2/Y

  Davidson-Liu solver: restarting from previous calculation.
 sydong:  unsymmetrize 2RDM

      12     -38.953614230493 -9.8986e-11    -38.953614230505 -3.9584e-11  5.4901e-08    2/Y
    ----------------------------------------------------------------------------------------

  A miracle has come to pass: MCSCF iterations have converged!

  Performing final CI Calculation using converged orbitals

  ==> String Lists <==

    --------------------------------------------------------
    number of alpha electrons                              3
    number of beta electrons                               3
    number of alpha strings                               20
    number of beta strings                                20
    --------------------------------------------------------

  ==> FCI Solver <==

    --------------------------------------------------------
    Spin adapt                                         FALSE
    Number of determinants                               400
    Symmetry                                               0
    Multiplicity                                           1
    Number of roots                                        1
    Target root                                            0
    --------------------------------------------------------

  ==> Davidson-Liu Solver <==

    --------------------------------------------------------
    Print level                                      Default
    Energy convergence threshold                   1.000e-10
    Residual convergence threshold                 1.000e-08
    Schmidt orthogonality threshold                1.000e-12
    Schmidt discard threshold                      1.000e-07
    Size of the space                                    400
    Number of roots                                        1
    Maximum number of iterations                         100
    Collapse subspace size                                 2
    Maximum subspace size                                 10
    --------------------------------------------------------

  Davidson-Liu solver: restarting from previous calculation.
  Iteration     Average Energy            max(∆E)            max(Residual)  Vectors
  ---------------------------------------------------------------------------------
       0      -38.953614230505        0.000000000012        0.000002578880      1
       1      -38.953614230510        0.000000000004        0.000000703784      2
       2      -38.953614230510        0.000000000000        0.000000242198      3
       3      -38.953614230510        0.000000000000        0.000000044269      4
       4      -38.953614230510        0.000000000000        0.000000007522      5
  ---------------------------------------------------------------------------------

  ==> Root No. 0 <==

    222000      0.96714361
    220200     -0.17969278
    202002     -0.07134543
    a2b200      0.06502168
    b2a200      0.06502168
    022200     -0.04388849
    022020     -0.04303845
    ba20ab      0.04023537
    ab20ba      0.04023537
    202020     -0.03629433
    2ab0ab      0.03331644
    2ba0ba      0.03331644
    a2b020     -0.03069477
    b2a020     -0.03069477
    ba20ba      0.02920294
    ab20ab      0.02920294
    220002     -0.02747835
    220020     -0.02437377
    2ba0ab      0.02292965
    2ab0ba      0.02292965
    022002     -0.02217948
    200202      0.01356984
    020220      0.01317505
    aa20bb     -0.01103242
    bb20aa     -0.01103242
    2aa0bb      0.01038678
    2bb0aa      0.01038678

    Total Energy:     -38.953614230510, <S^2>: -0.000000
    Time for FCI:       0.012143110000

  ==> Energy Summary <==

    Multi.(2ms)  Irrep.  No.               Energy      <S^2>
    --------------------------------------------------------
       1  (  0)     A     0      -38.953614230510  -0.000000
    --------------------------------------------------------
  Computing RDMs for dipole moments ... Done

  ==> Summary of Dipole Moments [e a0] (Nuclear + Electronic) <==

       State           DM_X           DM_Y           DM_Z           |DM|
    --------------------------------------------------------------------
          0A     0.00000000     0.00000000     0.65009964     0.65009964
    --------------------------------------------------------------------
     Nuclear     0.00000000     0.00000000     1.12739605     1.12739605
    --------------------------------------------------------------------

  ==> Natural Orbitals <==

        2A      1.981419      3A      1.977102      4A      1.910381  
        5A      0.087370      6A      0.022627      7A      0.021101  

  Canonicalizing final MCSCF orbitals

  ==> Semicanonicalize Orbitals <==

    MIX INACTIVE ORBITALS         FALSE
    MIX GAS ACTIVE ORBITALS       FALSE
    FROZEN_DOCC                   CANONICAL
    FROZEN_UOCC                   CANONICAL
    GAS1                          CANONICAL
    RESTRICTED_DOCC               CANONICAL
    RESTRICTED_UOCC               CANONICAL

    Off-Diag. Elements       Max           2-Norm
    ------------------------------------------------
    FROZEN_DOCC          0.0000000000   0.0000000000
    GAS1                 0.0081590229   0.0133825136
    RESTRICTED_UOCC      0.3851628369   1.3762965161
    ------------------------------------------------

    Canonicalization test failed

  Warning: Failed to fix orbital phase and order.
  Timing for orbital canonicalization:                        0.000 s.

  !!! WARNING: Final Active Orbitals Maybe Different from the Original !!!

    Based on projections of maximum overlap method:
           5A -> 8A        RESTRICTED_UOCC
           6A -> 9A        RESTRICTED_UOCC
  Orbital rotations on spin-free RDMs ...
    Transformed 1 RDMs.
    Transformed 2 RDMs.
  Integrals are about to be updated.
  Computing Conventional Integrals	Presorting SO-basis two-electron integrals.
	Sorting File: SO Ints (nn|nn) nbuckets = 1
	Constructing frozen core operators
	Starting first half-transformation.
	Sorting half-transformed integrals.
	First half integral transformation complete.
	Starting second half-transformation.
	Two-electron integral transformation complete.

  Integral transformation done. 0.11141250 s
  Reading the two-electron integrals from disk
  Size of two-electron integrals:   0.118652 GB
  Timing for conventional integral transformation:            0.489 s.
  Frozen-core energy         -34.262090938118334 a.u.
  Timing for frozen one-body operator:                        0.001 s.
  Resorting integrals after freezing core.
  Timing for freezing core and virtual orbitals:              0.319 s.
  Integrals update took     0.808 s.

  The integrals are not consistent with the orbitals. Re-transforming them.


  ==> String Lists <==

    --------------------------------------------------------
    number of alpha electrons                              3
    number of beta electrons                               3
    number of alpha strings                               20
    number of beta strings                                20
    --------------------------------------------------------

  ==> FCI Solver <==

    --------------------------------------------------------
    Spin adapt                                         FALSE
    Number of determinants                               400
    Symmetry                                               0
    Multiplicity                                           1
    Number of roots                                        1
    Target root                                            0
    --------------------------------------------------------
  Initial guess space is incomplete.
  Adding 5 determinant(s).

  ==> Initial Guess <==

  Initial guess determinants:         55

  Classification of the initial guess solutions

  Number   2S+1   Selected
  ------------------------
    26       1       *
    26       3        
     3       5        
  ------------------------

    Spin    Root           Energy        <S^2>    Status
  -------------------------------------------------------
   singlet    0      -73.174069113167  -0.000000  added
  -------------------------------------------------------

  ==> Davidson-Liu Solver <==

    --------------------------------------------------------
    Print level                                      Default
    Energy convergence threshold                   1.000e-10
    Residual convergence threshold                 1.000e-08
    Schmidt orthogonality threshold                1.000e-12
    Schmidt discard threshold                      1.000e-07
    Size of the space                                    400
    Number of roots                                        1
    Maximum number of iterations                         100
    Collapse subspace size                                 2
    Maximum subspace size                                 10
    --------------------------------------------------------

  Davidson-Liu solver: adding 1 guess vectors
  Iteration     Average Energy            max(∆E)            max(Residual)  Vectors
  ---------------------------------------------------------------------------------
       0      -38.911978175049       38.911978175049        0.273019016551      1
       1      -38.952076881369        0.040098706320        0.058271523854      2
       2      -38.953556655908        0.001479774539        0.010748820821      3
       3      -38.953611222922        0.000054567014        0.002306406607      4
       4      -38.953614125235        0.000002902313        0.000470919475      5
       5      -38.953614227000        0.000000101765        0.000082913891      6
       6      -38.953614230363        0.000000003364        0.000016435694      7
       7      -38.953614230504        0.000000000141        0.000003210628      8
       8      -38.953614230510        0.000000000005        0.000000606057      9
       9      -38.953614230510        0.000000000000        0.000000106976     10
      10      -38.953614230510        0.000000000000        0.000000025099      3
      11      -38.953614230510        0.000000000000        0.000000004477      4
  ---------------------------------------------------------------------------------

  ==> Root No. 0 <==

    222000     -0.96719992
    220200      0.18028153
    202020      0.07137849
    b2a200     -0.06444816
    a2b200     -0.06444816
    022200      0.04333936
    022002      0.04330238
    ba20ba     -0.04038163
    ab20ab     -0.04038163
    202002      0.03629432
    2ab0ba     -0.03316520
    2ba0ab     -0.03316520
    a2b002      0.03060871
    b2a002      0.03060871
    ab20ba     -0.02930082
    ba20ab     -0.02930082
    220020      0.02745603
    220002      0.02418073
    2ba0ba     -0.02280288
    2ab0ab     -0.02280288
    022020      0.02218996
    200220     -0.01363150
    020202     -0.01320339
    aa20bb     -0.01108081
    bb20aa     -0.01108081
    2bb0aa      0.01036232
    2aa0bb      0.01036232

    Total Energy:     -38.953614230510, <S^2>: -0.000000
    Time for FCI:       0.025252325000

  ==> Energy Summary <==

    Multi.(2ms)  Irrep.  No.               Energy      <S^2>
    --------------------------------------------------------
       1  (  0)     A     0      -38.953614230510  -0.000000
    --------------------------------------------------------
  Computing RDMs for dipole moments ... Done

  ==> Summary of Dipole Moments [e a0] (Nuclear + Electronic) <==

       State           DM_X           DM_Y           DM_Z           |DM|
    --------------------------------------------------------------------
          0A     0.00000000    -0.00000000     0.65500074     0.65500074
    --------------------------------------------------------------------
     Nuclear     0.00000000     0.00000000     1.12739605     1.12739605
    --------------------------------------------------------------------

  ==> Natural Orbitals <==

        2A      1.981419      3A      1.977102      4A      1.910381  
        5A      0.087370      6A      0.022627      7A      0.021101  


  ==> Semicanonicalize Orbitals <==

    MIX INACTIVE ORBITALS         FALSE
    MIX GAS ACTIVE ORBITALS       FALSE
    FROZEN_DOCC                   CANONICAL
    FROZEN_UOCC                   CANONICAL
    GAS1                          CANONICAL
    RESTRICTED_DOCC               CANONICAL
    RESTRICTED_UOCC               CANONICAL

    Off-Diag. Elements       Max           2-Norm
    ------------------------------------------------
    FROZEN_DOCC          0.0000000000   0.0000000000
    GAS1                 0.0000000003   0.0000000006
    RESTRICTED_UOCC      0.0000000005   0.0000000023
    ------------------------------------------------

    Canonicalization test passed

  Orbitals are already semicanonicalized.
  Timing for orbital canonicalization:                        0.007 s.

  ==> Multireference Driven Similarity Renormalization Group <==

    Computing Fock matrix and cleaning JK ........... Done
    Reading DSRG options ............................ Done
    Setting ambit MO space .......................... Done
    Preparing tensors for density cumulants ......... Done
    Filling Fock matrix from ForteIntegrals ......... Done

              ----------------------------------------------------
                    MR-DSRG Second-Order Perturbation Theory
                Chenyang Li, Kevin Hannon, Francesco Evangelista
              ----------------------------------------------------

    References:
      u-DSRG-MRPT2:    J. Chem. Theory Comput. 2015, 11, 2097.
      (pr-)DSRG-MRPT2: J. Chem. Phys. 2017, 146, 124132.

  ==> Calculation Information <==

    --------------------------------------------------------
    int_type                                    CONVENTIONAL
    source operator                                 STANDARD
    reference relaxation                                NONE
    state_type                                STATE-SPECIFIC
    form Hbar3                                         FALSE
    flow parameter                                 5.000e-01
    taylor expansion threshold                     1.000e-03
    intruder_tamp                                  1.000e-01
    ntamp                                                 15
    --------------------------------------------------------
  =>** Before self.dsrg_solver.compute_energy() **<=


  ==> Checking Semicanonical Orbitals <==

    Block             Fa Max         Fa Mean           Fb Max         Fb Mean
    -------------------------------------------------------------------------
    CORE        0.0000000000    0.0000000000     0.0000000000    0.0000000000
    VIRTUAL     0.0000000005    0.0000000000     0.0000000005    0.0000000000
    GAS1        0.0000000003    0.0000000000     0.0000000003    0.0000000000
    -------------------------------------------------------------------------
    Orbitals are semi-canonicalized.

  ==> Computing DSRG-MRPT2 ... <==

    Computing T2 amplitudes                  ...  Done. Timing        0.011746 s
    Computing T1 amplitudes                  ...  Done. Timing        0.001318 s
    Renormalizing two-electron integrals     ...  Done. Timing        0.010011 s
    Renormalizing Fock matrix elements       ...  Done. Timing        0.001360 s
    Computing <[F, T1]>                      ...  Done. Timing        0.000583 s
    Computing <[F, T2]>                      ...  Done. Timing        0.001647 s
    Computing <[V, T1]>                      ...  Done. Timing        0.001476 s
    Computing <[V, T2]> (C_2)^4              ...  Done. Timing        0.010908 s
    Computing <[V, T2]> C_4 (C_2)^2 HH       ...  Done. Timing        0.002561 s
    Computing <[V, T2]> C_4 (C_2)^2 PP       ...  Done. Timing        0.003530 s
    Computing <[V, T2]> C_4 (C_2)^2 PH       ...  Done. Timing        0.013502 s
    Computing <[V, T2]> C_6 C_2              ...  Done. Timing        0.010902 s

  ==> Excitation Amplitudes Summary <==

    Active Indices:    0    1    2    3    4    5 
    Largest T1 amplitudes for spin case A:
       i       a                  i       a                  i       a               
    --------------------------------------------------------------------------------
    [  4      32    ]-0.096264 [  5      37    ] 0.091779 [  5      26    ] 0.091217 
    [  4      36    ]-0.088516 [  4      25    ]-0.076075 [  3      33    ]-0.069792 
    [  3      38    ] 0.055980 [  5      30    ]-0.050502 [  4      35    ]-0.047496 
    [  5      28    ] 0.043568 [  5      41    ]-0.043239 [  3      21    ] 0.042371 
    [  4      42    ]-0.040345 [  5      24    ]-0.038749 [  3      14    ]-0.030239 
    --------------------------------------------------------------------------------
    Norm of T1A vector: (nonzero elements: 159)                   0.260191612995941.
    --------------------------------------------------------------------------------
    Largest T1 amplitudes for spin case B:
       _       _                  _       _                  _       _               
       i       a                  i       a                  i       a               
    --------------------------------------------------------------------------------
    [  4      32    ]-0.096264 [  5      37    ] 0.091779 [  5      26    ] 0.091217 
    [  4      36    ]-0.088516 [  4      25    ]-0.076075 [  3      33    ]-0.069792 
    [  3      38    ] 0.055980 [  5      30    ]-0.050502 [  4      35    ]-0.047496 
    [  5      28    ] 0.043568 [  5      41    ]-0.043239 [  3      21    ] 0.042371 
    [  4      42    ]-0.040345 [  5      24    ]-0.038749 [  3      14    ]-0.030239 
    --------------------------------------------------------------------------------
    Norm of T1B vector: (nonzero elements: 159)                   0.260191612995941.
    --------------------------------------------------------------------------------
    Largest T2 amplitudes for spin case AA:
     i   j   a   b              i   j   a   b              i   j   a   b             
    --------------------------------------------------------------------------------
    [  2   3   3  18]  0.032358 [  3   4   4  27] -0.031941 [  3   4   3  32] -0.030937 
    [  3   5   5  27] -0.030001 [  1   5   5  12]  0.027883 [  0   3   0  27]  0.027866 
    [  2   3   2  27]  0.026788 [  2   4   2  32] -0.026338 [  4   5   5  32]  0.025235 
    [  0   4   0  32] -0.023021 [  0   3   3  18] -0.022809 [  1   3   1  27]  0.021889 
    [  2   5   5  15]  0.021768 [  2   4   4  18]  0.021667 [  4   5   5  35] -0.020688 
    --------------------------------------------------------------------------------
    Norm of T2AA vector: (nonzero elements: 32776)                0.470973384301533.
    --------------------------------------------------------------------------------
    Largest T2 amplitudes for spin case AB:
         _       _                  _       _                  _       _             
     i   j   a   b              i   j   a   b              i   j   a   b             
    --------------------------------------------------------------------------------
    [  2   2   2  18] -0.037393 [  4   4   4  32] -0.034100 [  3   3   3  27]  0.033062 
    [  0   1   0  12] -0.032116 [  3   4   3  32] -0.030541 [  1   1   1  12] -0.029585 
    [  2   4   2  32] -0.027532 [  2   3   2  27]  0.026874 [  0   3   0  27]  0.026744 
    [  4   4   1  35] -0.026050 [  0   1   1  13] -0.025571 [  0   4   0  32] -0.023375 
    [  3   3  27  27] -0.023200 [  0   2   0  15] -0.022228 [  0   0   0  18]  0.021804 
    --------------------------------------------------------------------------------
    Norm of T2AB vector: (nonzero elements: 40908)                0.530367729811367.
    --------------------------------------------------------------------------------
    Largest T2 amplitudes for spin case BB:
     _   _   _   _              _   _   _   _              _   _   _   _             
     i   j   a   b              i   j   a   b              i   j   a   b             
    --------------------------------------------------------------------------------
    [  2   3   3  18]  0.032358 [  3   4   4  27] -0.031941 [  3   4   3  32] -0.030937 
    [  3   5   5  27] -0.030001 [  1   5   5  12]  0.027883 [  0   3   0  27]  0.027866 
    [  2   3   2  27]  0.026788 [  2   4   2  32] -0.026338 [  4   5   5  32]  0.025235 
    [  0   4   0  32] -0.023021 [  0   3   3  18] -0.022809 [  1   3   1  27]  0.021889 
    [  2   5   5  15]  0.021768 [  2   4   4  18]  0.021667 [  4   5   5  35] -0.020688 
    --------------------------------------------------------------------------------
    Norm of T2BB vector: (nonzero elements: 32776)                0.470973384301533.
    --------------------------------------------------------------------------------

  ==> Possible Intruders <==

    T1 amplitudes larger than 0.1000 for spin case A: NULL
    T1 amplitudes larger than 0.1000 for spin case B: NULL
    T2 amplitudes larger than 0.1000 for spin case AA: NULL
    T2 amplitudes larger than 0.1000 for spin case AB: NULL
    T2 amplitudes larger than 0.1000 for spin case BB: NULL

  ==> DSRG-MRPT2 Energy Summary <==

    E0 (reference)                 =    -38.953614230509913
    <[F, T1]>                      =     -0.009152181305876
    <[F, T2]>                      =      0.010625282424873
    <[V, T1]>                      =      0.008043949987160
    <[V, T2]> (C_2)^4              =     -0.101898245972204
    <[V, T2]> C_4 (C_2)^2 HH       =      0.000000000000000
    <[V, T2]> C_4 (C_2)^2 PP       =      0.014536678874695
    <[V, T2]> C_4 (C_2)^2 PH       =      0.003414672702246
    <[V, T2]> C_6 C_2              =     -0.002801949242826
    <[V, T2]>                      =     -0.086748843638089
    DSRG-MRPT2 correlation energy  =     -0.077231792531932
    DSRG-MRPT2 total energy        =    -39.030846023041846
    max(T1)                        =      0.096264492079978
    max(T2)                        =      0.037392655878252
    ||T1||                         =      0.367966507914591
    ||T2||                         =      1.252514100815608

  Energy took      0.182 s

  =>** After self.dsrg_solver.compute_energy() **<=

  Semicanonical orbitals must be used!


  ==> Total Timings (s) for Computing Commutators <==

           [H1, T1]    [H1, T2]    [H2, T1]    [H2, T2]  
    -----------------------------------------------------
    -> C0       0.001       0.002       0.001       0.041
    -> C1       0.000       0.000       0.000       0.000
    -> C2                   0.000       0.000       0.000
    -----------------------------------------------------


  Time to prepare integrals:        1.101 seconds
  Time to run job          :        4.077 seconds
  Total                    :        5.178 seconds
