
    -----------------------------------------------------------------------
          Psi4: An Open-Source Ab Initio Electronic Structure Package
                               Psi4 1.9.1 release

                         Git: Rev {HEAD} f53cdd7 


    D. G. A. Smith, L. A. Burns, A. C. Simmonett, R. M. Parrish,
    M. C. Schieber, R. Galvelis, P. Kraus, H. Kruse, R. Di Remigio,
    A. Alenaizan, A. M. James, S. Lehtola, J. P. Misiewicz, M. Scheurer,
    R. A. Shaw, J. B. Schriber, Y. Xie, Z. L. Glick, D. A. Sirianni,
    J. S. O'Brien, J. M. Waldrop, A. Kumar, E. G. Hohenstein,
    B. P. Pritchard, B. R. Brooks, H. F. Schaefer III, A. Yu. Sokolov,
    K. Patkowski, A. E. DePrince III, U. Bozkaya, R. A. King,
    F. A. Evangelista, J. M. Turney, T. D. Crawford, C. D. Sherrill,
    J. Chem. Phys. 152(18) 184108 (2020). https://doi.org/10.1063/5.0006002

                            Additional Code Authors
    E. T. Seidl, C. L. Janssen, E. F. Valeev, M. L. Leininger,
    J. F. Gonthier, R. M. Richard, H. R. McAlexander, M. Saitow, X. Wang,
    P. Verma, M. H. Lechner, A. Jiang, S. Behnle, A. G. Heide,
    M. F. Herbst, and D. L. Poole

             Previous Authors, Complete List of Code Contributors,
                       and Citations for Specific Modules
    https://github.com/psi4/psi4/blob/master/codemeta.json
    https://github.com/psi4/psi4/graphs/contributors
    http://psicode.org/psi4manual/master/introduction.html#citing-psifour

    -----------------------------------------------------------------------


    Psi4 started on: Saturday, 10 May 2025 03:50PM

    Process ID: 3177427
    Host:       debianlab
    PSIDATADIR: /home/sydong/install_tutorial/psi4/share/psi4
    Memory:     500.0 MiB
    Threads:    1
      Threads set to 36 by Python driver.

  Memory set to 279.397 GiB by Python driver.

Scratch directory: /home/sydong/scratch/psi4/
   => Libint2 <=

    Primary   basis highest AM E, G, H:  6, 6, 3
    Auxiliary basis highest AM E, G, H:  7, 7, 4
    Onebody   basis highest AM E, G, H:  -, -, -
    Solid Harmonics ordering:            Gaussian

*** tstart() called on debianlab
*** at Sat May 10 15:50:36 2025

   => Loading Basis Set <=

    Name: AUG-CC-PVDZ
    Role: ORBITAL
    Keyword: BASIS
    atoms 1 entry NE         line   326 file /home/sydong/install_tutorial/psi4/share/psi4/basis/aug-cc-pvdz.gbs 


         ---------------------------------------------------------
                                   SCF
               by Justin Turney, Rob Parrish, Andy Simmonett
                          and Daniel G. A. Smith
                              RHF Reference
                       36 Threads, 286102 MiB Core
         ---------------------------------------------------------

  ==> Geometry <==

    Molecular point group: c1
    Geometry (in Angstrom), charge = 0, multiplicity = 1:

       Center              X                  Y                   Z               Mass       
    ------------   -----------------  -----------------  -----------------  -----------------
         NE           0.000000000000     0.000000000000     0.000000000000    19.992440176200

  Running in c1 symmetry.

  Rotational constants: A = ************  B = ************  C = ************ [cm^-1]
  Rotational constants: A = ************  B = ************  C = ************ [MHz]
  Nuclear repulsion =    0.000000000000000

  Charge       = 0
  Multiplicity = 1
  Electrons    = 10
  Nalpha       = 5
  Nbeta        = 5

  ==> Algorithm <==

  SCF Algorithm Type is PK.
  DIIS enabled.
  MOM disabled.
  Fractional occupation disabled.
  Guess Type is CORE.
  Energy threshold   = 1.00e-10
  Density threshold  = 1.00e-08
  Integral threshold = 1.00e-12

  ==> Primary Basis <==

  Basis Set: AUG-CC-PVDZ
    Blend: AUG-CC-PVDZ
    Number of shells: 9
    Number of basis functions: 23
    Number of Cartesian functions: 25
    Spherical Harmonics?: true
    Max angular momentum: 2

  ==> Integral Setup <==

  Using in-core PK algorithm.
   Calculation information:
      Number of atoms:                   1
      Number of AO shells:               9
      Number of primitives:             25
      Number of atomic orbitals:        25
      Number of basis functions:        23

      Integral cutoff                 1.00e-12
      Number of threads:                36

  Performing in-core PK
  Using 76452 doubles for integral storage.
  We computed 7562 shell quartets total.
  Whereas there are 1035 unique shell quartets.
   630.63 percent of shell quartets recomputed by reordering.

  ==> DiskJK: Disk-Based J/K Matrices <==

    J tasked:                  Yes
    K tasked:                  Yes
    wK tasked:                  No
    Memory [MiB]:           214576
    Schwarz Cutoff:          1E-12

    OpenMP threads:             36

  Minimum eigenvalue in the overlap matrix is 9.8616913390E-02.
  Reciprocal condition number of the overlap matrix is 4.4899065075E-02.
    Using symmetric orthogonalization.

  ==> Pre-Iterations <==

  SCF Guess: Core (One-Electron) Hamiltonian.

   -------------------------------------------------------
    Irrep   Nso     Nmo     Nalpha   Nbeta   Ndocc  Nsocc
   -------------------------------------------------------
     A         23      23       5       5       5       0
   -------------------------------------------------------
    Total      23      23       5       5       5       0
   -------------------------------------------------------

  ==> Iterations <==

                        Total Energy        Delta E     RMS |[F,P]|

   @RHF iter   1:  -122.51940312077672   -1.22519e+02   1.52855e-01 ADIIS
   @RHF iter   2:  -119.86187195478308    2.65753e+00   1.69380e-01 ADIIS
   @RHF iter   3:  -128.44865676196713   -8.58678e+00   1.96201e-02 ADIIS/DIIS
   @RHF iter   4:  -128.49620248301093   -4.75457e-02   9.66785e-04 ADIIS/DIIS
   @RHF iter   5:  -128.49634482530499   -1.42342e-04   1.87240e-04 ADIIS/DIIS
   @RHF iter   6:  -128.49634968346342   -4.85816e-06   1.77153e-05 DIIS
   @RHF iter   7:  -128.49634972914518   -4.56818e-08   3.32025e-06 DIIS
   @RHF iter   8:  -128.49634973053500   -1.38982e-09   1.83211e-07 DIIS
   @RHF iter   9:  -128.49634973054071   -5.71276e-12   2.28381e-08 DIIS
   @RHF iter  10:  -128.49634973054074   -2.84217e-14   9.77871e-11 DIIS
  Energy and wave function converged.


  ==> Post-Iterations <==

    Orbital Energies [Eh]
    ---------------------

    Doubly Occupied:                                                      

       1A    -32.794951     2A     -1.940421     3A     -0.853040  
       4A     -0.853040     5A     -0.853040  

    Virtual:                                                              

       6A      0.287355     7A      0.293011     8A      0.293011  
       9A      0.293011    10A      1.757692    11A      1.757692  
      12A      1.757692    13A      1.757692    14A      1.757692  
      15A      1.961351    16A      1.961351    17A      1.961351  
      18A      2.741966    19A      6.372473    20A      6.372473  
      21A      6.372473    22A      6.372473    23A      6.372473  

    Final Occupation by Irrep:
              A 
    DOCC [     5 ]
    NA   [     5 ]
    NB   [     5 ]

  @RHF Final Energy:  -128.49634973054074

   => Energetics <=

    Nuclear Repulsion Energy =              0.0000000000000000
    One-Electron Energy =                -182.4037150974009194
    Two-Electron Energy =                  53.9073653668601693
    Total Energy =                       -128.4963497305407429

Computation Completed


Properties will be evaluated at   0.000000,   0.000000,   0.000000 [a0]

Properties computed using the SCF density matrix


 Multipole Moments:

 ------------------------------------------------------------------------------------
     Multipole            Electronic (a.u.)      Nuclear  (a.u.)        Total (a.u.)
 ------------------------------------------------------------------------------------

 L = 1.  Multiply by 2.5417464519 to convert [e a0] to [Debye]
 Dipole X            :         -0.0000000            0.0000000           -0.0000000
 Dipole Y            :         -0.0000000            0.0000000           -0.0000000
 Dipole Z            :         -0.0000000            0.0000000           -0.0000000
 Magnitude           :                                                    0.0000000

 ------------------------------------------------------------------------------------

*** tstop() called on debianlab at Sat May 10 15:50:37 2025
Module time:
	user time   =       0.46 seconds =       0.01 minutes
	system time =       0.29 seconds =       0.00 minutes
	total time  =          1 seconds =       0.02 minutes
Total time:
	user time   =       0.46 seconds =       0.01 minutes
	system time =       0.29 seconds =       0.00 minutes
	total time  =          1 seconds =       0.02 minutes

Scratch directory: /home/sydong/scratch/psi4/

  Forte
  ----------------------------------------------------------------------------
  A suite of quantum chemistry methods for strongly correlated electrons

    git branch: ct_forte - git commit: 41562031

  Developed by:
    Francesco A. Evangelista, Chenyang Li, Kevin P. Hannon,
    Jeffrey B. Schriber, Tianyuan Zhang, Chenxi Cai,
    Nan He, Nicholas Stair, Shuhe Wang, Renke Huang
  ----------------------------------------------------------------------------

  Forte will use options passed as a dictionary. Option read from psi4 will be ignored


  Preparing forte objects from a Psi4 Wavefunction object Using basis set AUG-CC-PVDZ from Psi4 global options.   => Loading Basis Set <=

    Name: AUG-CC-PVDZ
    Role: ORBITAL
    Keyword: BASIS
    atoms 1 entry NE         line   326 file /home/sydong/install_tutorial/psi4/share/psi4/basis/aug-cc-pvdz.gbs 



  ==> MO Space Information <==

  -------------------------------
                        A   Sum
  -------------------------------
    FROZEN_DOCC         0     0
    RESTRICTED_DOCC     2     2
    GAS1                4     4
    GAS2                0     0
    GAS3                0     0
    GAS4                0     0
    GAS5                0     0
    GAS6                0     0
    RESTRICTED_UOCC    17    17
    FROZEN_UOCC         0     0
    Total              23    23
  -------------------------------   => Loading Basis Set <=

    Name: STO-3G
    Role: ORBITAL
    Keyword: MINAO_BASIS
    atoms 1 entry NE         line   101 file /home/sydong/install_tutorial/psi4/share/psi4/basis/sto-3g.gbs 



  ==> List of Subspace Orbitals Requested <==
     NE(2P,3S)


  ==> AO Basis Set Selected By Subspace <==

    =======================================
      AO  Atom  Label     Type  Coefficient
    ---------------------------------------
    ---------------------------------------
    Number of subspace orbitals:          0
    =======================================

  ==> Orbital Overlap with AO Subspace (> 1.00e-03) <==

    =======================
    Irrep   MO  <phi|P|phi>
    -----------------------
    ========================

                     --------------------------------------
                       Atomic Valence Active Space (AVAS)
                           Chenxi Cai and Chenyang Li
                     --------------------------------------


  ==> AVAS Options <==

    --------------------------------------------------------
    AVAS selection scheme                       # ACTIVE MOS
    Diagonalize projected overlap matrices              TRUE
    AVAS sigma threshold (cumulative)              9.800e-01
    AVAS sigma direct cutoff                       1.000e+00
    Nonzero eigenvalue threshold                   1.000e-06
    Number of doubly occupied MOs                          5
    Number of singly occupied MOs                          0
    Number of unoccupied MOs                              18
    # Active AVAS MOs requested                            4
    # Active occupied AVAS MOs requested                   0
    # Active virtual AVAS MOs requested                    0
    --------------------------------------------------------
  Diagonalizing the doubly occupied projected overlap matrix ... Done
  Diagonalizing the unoccupied projected overlap matrix ........ Done
  Sum of eigenvalues: 0.00000000
  AVAS covers -nan% of the subspace.

  ==> AVAS MOs Information <==

    ---------------------
                        A
    ---------------------
    DOCC INACTIVE       1
    DOCC ACTIVE         4
    SOCC ACTIVE         0
    UOCC ACTIVE         0
    UOCC INACTIVE      18
    ---------------------
    RESTRICTED_DOCC     1
    ACTIVE              4
    RESTRICTED_UOCC    18
    ---------------------

  ==> Atomic Valence MOs (Active Marked by *) <==

    ===============================
     Irrep    MO  Occ.  <phi|P|phi>
    -------------------------------
    ===============================

  ==> Semicanonicalize Subsets of Orbitals <==

  Canonicalizing orbital block INACTIVE DOCC ....... Done
  Canonicalizing orbital block ACTIVE DOCC ......... Done
  Canonicalizing orbital block ACTIVE UOCC ......... Done
  Canonicalizing orbital block INACTIVE UOCC ....... Done
  State Singlet (Ms = 0) A GAS min: 0 0 0 0 0 0 ; GAS max: 8 0 0 0 0 0 ; weights:
      1.000000000000
  Forte will use psi4 integrals

  ==> Primary Basis Set Summary <==

  Basis Set: AUG-CC-PVDZ
    Blend: AUG-CC-PVDZ
    Number of shells: 9
    Number of basis functions: 23
    Number of Cartesian functions: 25
    Spherical Harmonics?: true
    Max angular momentum: 2


  JK created using conventional PK integrals
  Using in-core PK algorithm.
   Calculation information:
      Number of atoms:                   1
      Number of AO shells:               9
      Number of primitives:             25
      Number of atomic orbitals:        25
      Number of basis functions:        23

      Integral cutoff                 1.00e-12
      Number of threads:                36

  Performing in-core PK
  Using 76452 doubles for integral storage.
  We computed 7562 shell quartets total.
  Whereas there are 1035 unique shell quartets.
   630.63 percent of shell quartets recomputed by reordering.

  ==> DiskJK: Disk-Based J/K Matrices <==

    J tasked:                  Yes
    K tasked:                  Yes
    wK tasked:                  No
    Memory [MiB]:           228881
    Schwarz Cutoff:          1E-12

    OpenMP threads:             36



  ==> Integral Transformation <==

  Number of molecular orbitals:                         23
  Number of correlated molecular orbitals:              23
  Number of frozen occupied orbitals:                    0
  Number of frozen unoccupied orbitals:                  0
  Two-electron integral type:                 Conventional


  Skip integral allocation and transformation for AO-driven CASSCF.

          -----------------------------------------------------------
                  Multi-Configurational Self Consistent Field
                Two-Step Approximate Second-Order AO Algorithm
            written by Chenyang Li, Kevin P. Hannon, and Shuhe Wang
          -----------------------------------------------------------


  ==> MCSCF Calculation Information <==

    --------------------------------------------------------
    Print level                                      Default
    Integral type                               CONVENTIONAL
    CI solver type                                       FCI
    Final orbital type                             CANONICAL
    Derivative type                                     NONE
    Optimize orbitals                                   TRUE
    Include internal rotations                         FALSE
    Debug printing                                     FALSE
    Energy convergence                             1.000e-10
    Gradient convergence                           1.000e-10
    Max value for rotation                         2.000e-01
    Max number of macro iter.                            100
    Max number of micro iter. for orbitals                 6
    Max number of micro iter. for CI                      12
    DIIS start                                            15
    Min DIIS vectors                                       3
    Max DIIS vectors                                       8
    Frequency of DIIS extrapolation                        1
    --------------------------------------------------------

  ==> Independent Orbital Rotations <==

    ORBITAL SPACES                         A
    ----------------------------------------
             ACTIVE / RESTRICTED_DOCC      8
    RESTRICTED_UOCC /          ACTIVE     68
    RESTRICTED_UOCC / RESTRICTED_DOCC     34
    ----------------------------------------

  ==> String Lists <==

    --------------------------------------------------------
    number of alpha electrons                              3
    number of beta electrons                               3
    number of alpha strings                                4
    number of beta strings                                 4
    --------------------------------------------------------

  ==> Spin Adapter <==

    Number of CSFs:                                10
    Number of couplings:                           16

    Timing for identifying configurations:     0.0000
    Timing for finding the CSFs:               0.0000


  ==> FCI Solver <==

    --------------------------------------------------------
    Spin adapt                                          TRUE
    Number of determinants                                16
    Symmetry                                               0
    Multiplicity                                           1
    Number of roots                                        1
    Target root                                            0
    --------------------------------------------------------

  ==> Initial Guess <==

  Selected 1 CSF
  ---------------------------------------------
    CSF             Energy     <S^2>   Spin
  ---------------------------------------------
       0    -128.496349730541  0.000  singlet
  ---------------------------------------------
  Timing for initial guess  =      0.000 s


  ==> Davidson-Liu Solver <==

    --------------------------------------------------------
    Print level                                      Default
    Energy convergence threshold                   1.000e-10
    Residual convergence threshold                 1.000e-08
    Schmidt orthogonality threshold                1.000e-12
    Schmidt discard threshold                      1.000e-07
    Size of the space                                     10
    Number of roots                                        1
    Maximum number of iterations                         100
    Collapse subspace size                                 2
    Maximum subspace size                                 10
    --------------------------------------------------------

  Davidson-Liu solver: adding 1 guess vectors
  Iteration     Average Energy            max(∆E)            max(Residual)  Vectors
  ---------------------------------------------------------------------------------
       0     -128.496349730541      128.496349730541        0.029011498105      1
       1     -128.496591522479        0.000241791938        0.001085259210      2
       2     -128.496592141590        0.000000619111        0.000056505758      3
       3     -128.496592142689        0.000000001099        0.000000000000      4 <- added 1 random vector
       4     -128.496592142689        0.000000000000        0.000000000000      5
  ---------------------------------------------------------------------------------

  ==> Root No. 0 <==

    2220     -0.99996059

    Total Energy:    -128.496592142689, <S^2>: 0.000000
    Time for FCI:       0.004679296000

  ==> Energy Summary <==

    Multi.(2ms)  Irrep.  No.               Energy      <S^2>
    --------------------------------------------------------
       1  (  0)     A     0     -128.496592142689   0.000000
    --------------------------------------------------------
  Computing RDMs for dipole moments ... Done

  ==> Summary of Dipole Moments [e a0] (Nuclear + Electronic) <==

       State           DM_X           DM_Y           DM_Z           |DM|
    --------------------------------------------------------------------
          0A    -0.00000000    -0.00000000    -0.00000000     0.00000000
    --------------------------------------------------------------------
     Nuclear     0.00000000     0.00000000     0.00000000     0.00000000
    --------------------------------------------------------------------

  ==> Natural Orbitals <==

        3A      1.999948      5A      1.999948      4A      1.999948  
        6A      0.000157  

 sydong:  unsymmetrize 2RDM


  ==> MCSCF Iterations <==

                      Energy CI                    Energy Orbital
           ------------------------------  ------------------------------
    Iter.        Total Energy       Delta        Total Energy       Delta  Orb. Grad.  Micro
    ----------------------------------------------------------------------------------------
 sydong:  unsymmetrize 2RDM

  L-BFGS Warning: Skip this vector due to negative rho
  L-BFGS Warning: Skip this vector due to negative rho
  L-BFGS Warning: Skip this vector due to negative rho
       1    -128.496592142689 -1.2850e+02   -128.498750399800 -1.2850e+02  2.8042e-04    6/N

  ==> Spin Adapter <==

    Number of CSFs:                                10
    Number of couplings:                           16

    Timing for identifying configurations:     0.0001
    Timing for finding the CSFs:               0.0000


  Davidson-Liu solver: restarting from previous calculation.
 sydong:  unsymmetrize 2RDM

       2    -128.500363353368 -3.7712e-03   -128.500638716349 -1.8883e-03  2.0642e-04    6/N

  ==> Spin Adapter <==

    Number of CSFs:                                10
    Number of couplings:                           16

    Timing for identifying configurations:     0.0001
    Timing for finding the CSFs:               0.0000


  Davidson-Liu solver: restarting from previous calculation.
 sydong:  unsymmetrize 2RDM

       3    -128.500712085418 -3.4873e-04   -128.500719992274 -8.1276e-05  1.5910e-05    6/N

  ==> Spin Adapter <==

    Number of CSFs:                                10
    Number of couplings:                           16

    Timing for identifying configurations:     0.0000
    Timing for finding the CSFs:               0.0000


  Davidson-Liu solver: restarting from previous calculation.
 sydong:  unsymmetrize 2RDM

       4    -128.500720929263 -8.8438e-06   -128.500721031940 -1.0397e-06  3.1498e-06    6/N

  ==> Spin Adapter <==

    Number of CSFs:                                10
    Number of couplings:                           16

    Timing for identifying configurations:     0.0001
    Timing for finding the CSFs:               0.0000


  Davidson-Liu solver: restarting from previous calculation.
 sydong:  unsymmetrize 2RDM

       5    -128.500721048396 -1.1913e-07   -128.500724703434 -3.6715e-06  2.3119e-04    6/N

  ==> Spin Adapter <==

    Number of CSFs:                                10
    Number of couplings:                           16

    Timing for identifying configurations:     0.0001
    Timing for finding the CSFs:               0.0000


  Davidson-Liu solver: restarting from previous calculation.
 sydong:  unsymmetrize 2RDM

       6    -128.501110172456 -3.8912e-04   -128.501794920136 -1.0702e-03  3.1578e-04    6/N

  ==> Spin Adapter <==

    Number of CSFs:                                10
    Number of couplings:                           16

    Timing for identifying configurations:     0.0001
    Timing for finding the CSFs:               0.0000


  Davidson-Liu solver: restarting from previous calculation.
 sydong:  unsymmetrize 2RDM

       7    -128.502240286849 -1.1301e-03   -128.502298180423 -5.0326e-04  2.9203e-04    6/N

  ==> Spin Adapter <==

    Number of CSFs:                                10
    Number of couplings:                           16

    Timing for identifying configurations:     0.0001
    Timing for finding the CSFs:               0.0000


  Davidson-Liu solver: restarting from previous calculation.
 sydong:  unsymmetrize 2RDM

       8    -128.502302566075 -6.2279e-05   -128.502303004382 -4.8240e-06  1.3218e-05    6/N

  ==> Spin Adapter <==

    Number of CSFs:                                10
    Number of couplings:                           16

    Timing for identifying configurations:     0.0001
    Timing for finding the CSFs:               0.0000


  Davidson-Liu solver: restarting from previous calculation.
 sydong:  unsymmetrize 2RDM

       9    -128.502303149084 -5.8301e-07   -128.502303225669 -2.2129e-07  2.9059e-06    6/N

  ==> Spin Adapter <==

    Number of CSFs:                                10
    Number of couplings:                           16

    Timing for identifying configurations:     0.0001
    Timing for finding the CSFs:               0.0000


  Davidson-Liu solver: restarting from previous calculation.
 sydong:  unsymmetrize 2RDM

      10    -128.502303269892 -1.2081e-07   -128.502303296165 -7.0496e-08  4.2447e-07    6/N

  ==> Spin Adapter <==

    Number of CSFs:                                10
    Number of couplings:                           16

    Timing for identifying configurations:     0.0001
    Timing for finding the CSFs:               0.0000


  Davidson-Liu solver: restarting from previous calculation.
 sydong:  unsymmetrize 2RDM

      11    -128.502303311896 -4.2004e-08   -128.502303321384 -2.5219e-08  1.8538e-07    6/N

  ==> Spin Adapter <==

    Number of CSFs:                                10
    Number of couplings:                           16

    Timing for identifying configurations:     0.0001
    Timing for finding the CSFs:               0.0000


  Davidson-Liu solver: restarting from previous calculation.
 sydong:  unsymmetrize 2RDM

      12    -128.502303327113 -1.5217e-08   -128.502303330586 -9.2016e-09  1.3412e-07    6/N

  ==> Spin Adapter <==

    Number of CSFs:                                10
    Number of couplings:                           16

    Timing for identifying configurations:     0.0001
    Timing for finding the CSFs:               0.0000


  Davidson-Liu solver: restarting from previous calculation.
 sydong:  unsymmetrize 2RDM

      13    -128.502303332690 -5.5778e-09   -128.502303333970 -3.3844e-09  7.7282e-08    6/N

  ==> Spin Adapter <==

    Number of CSFs:                                10
    Number of couplings:                           16

    Timing for identifying configurations:     0.0001
    Timing for finding the CSFs:               0.0000


  Davidson-Liu solver: restarting from previous calculation.
 sydong:  unsymmetrize 2RDM

      14    -128.502303334747 -2.0568e-09   -128.502303335220 -1.2504e-09  4.5313e-08    6/N

  ==> Spin Adapter <==

    Number of CSFs:                                10
    Number of couplings:                           16

    Timing for identifying configurations:     0.0001
    Timing for finding the CSFs:               0.0000


  Davidson-Liu solver: restarting from previous calculation.
 sydong:  unsymmetrize 2RDM

      15    -128.502303335508 -7.6108e-10   -128.502303335684 -4.6325e-10  2.7141e-08    6/N   S

  ==> Spin Adapter <==

    Number of CSFs:                                10
    Number of couplings:                           16

    Timing for identifying configurations:     0.0001
    Timing for finding the CSFs:               0.0000


  Davidson-Liu solver: restarting from previous calculation.
 sydong:  unsymmetrize 2RDM

      16    -128.502303335790 -2.8220e-10   -128.502303335855 -1.7178e-10  1.6440e-08    6/N   S

  ==> Spin Adapter <==

    Number of CSFs:                                10
    Number of couplings:                           16

    Timing for identifying configurations:     0.0001
    Timing for finding the CSFs:               0.0000


  Davidson-Liu solver: restarting from previous calculation.
 sydong:  unsymmetrize 2RDM

      17    -128.502303335895 -1.0468e-10   -128.502303335919 -6.3920e-11  9.9992e-09    6/N   S

  ==> Spin Adapter <==

    Number of CSFs:                                10
    Number of couplings:                           16

    Timing for identifying configurations:     0.0001
    Timing for finding the CSFs:               0.0000


  Davidson-Liu solver: restarting from previous calculation.
 sydong:  unsymmetrize 2RDM

      18    -128.502303335934 -3.8995e-11   -128.502303335943 -2.3789e-11  6.0913e-09    6/N   S/E

  ==> Spin Adapter <==

    Number of CSFs:                                10
    Number of couplings:                           16

    Timing for identifying configurations:     0.0001
    Timing for finding the CSFs:               0.0000


  Davidson-Liu solver: restarting from previous calculation.
 sydong:  unsymmetrize 2RDM

      19    -128.502303335957 -2.3107e-11   -128.502303335957 -1.4154e-11  9.5218e-09    1/Y
    ----------------------------------------------------------------------------------------

  A miracle has come to pass: MCSCF iterations have converged!

  Performing final CI Calculation using converged orbitals

  ==> String Lists <==

    --------------------------------------------------------
    number of alpha electrons                              3
    number of beta electrons                               3
    number of alpha strings                                4
    number of beta strings                                 4
    --------------------------------------------------------

  ==> Spin Adapter <==

    Number of CSFs:                                10
    Number of couplings:                           16

    Timing for identifying configurations:     0.0001
    Timing for finding the CSFs:               0.0001


  ==> FCI Solver <==

    --------------------------------------------------------
    Spin adapt                                          TRUE
    Number of determinants                                16
    Symmetry                                               0
    Multiplicity                                           1
    Number of roots                                        1
    Target root                                            0
    --------------------------------------------------------

  ==> Davidson-Liu Solver <==

    --------------------------------------------------------
    Print level                                      Default
    Energy convergence threshold                   1.000e-10
    Residual convergence threshold                 1.000e-08
    Schmidt orthogonality threshold                1.000e-12
    Schmidt discard threshold                      1.000e-07
    Size of the space                                     10
    Number of roots                                        1
    Maximum number of iterations                         100
    Collapse subspace size                                 2
    Maximum subspace size                                 10
    --------------------------------------------------------

  Davidson-Liu solver: restarting from previous calculation.
  Iteration     Average Energy            max(∆E)            max(Residual)  Vectors
  ---------------------------------------------------------------------------------
       0     -128.502303335957        0.000000000000        0.000000001437      1
  ---------------------------------------------------------------------------------

  ==> Root No. 0 <==

    2220     -0.99963949
    2022      0.01791436
    2202      0.01514431

    Total Energy:    -128.502303335957, <S^2>: 0.000000
    Time for FCI:       0.002974962000

  ==> Energy Summary <==

    Multi.(2ms)  Irrep.  No.               Energy      <S^2>
    --------------------------------------------------------
       1  (  0)     A     0     -128.502303335957   0.000000
    --------------------------------------------------------
  Computing RDMs for dipole moments ... Done

  ==> Summary of Dipole Moments [e a0] (Nuclear + Electronic) <==

       State           DM_X           DM_Y           DM_Z           |DM|
    --------------------------------------------------------------------
          0A    -0.00000000    -0.00000000    -0.00000000     0.00000000
    --------------------------------------------------------------------
     Nuclear     0.00000000     0.00000000     0.00000000     0.00000000
    --------------------------------------------------------------------

  ==> Natural Orbitals <==

        3A      1.999830      4A      1.999803      5A      1.998929  
        6A      0.001438  

  Canonicalizing final MCSCF orbitals

  ==> Semicanonicalize Orbitals <==

    MIX INACTIVE ORBITALS         TRUE
    MIX GAS ACTIVE ORBITALS       FALSE
    GAS1                          CANONICAL
    INACTIVE_DOCC                 CANONICAL
    INACTIVE_UOCC                 CANONICAL

    Off-Diag. Elements       Max           2-Norm
    ------------------------------------------------
    GAS1                 0.0025714246   0.0036372827
    INACTIVE_DOCC        0.0000000000   0.0000000000
    INACTIVE_UOCC        0.8962549379   3.0788541112
    ------------------------------------------------

    Canonicalization test failed

  Timing for orbital canonicalization:                        0.004 s.

  !!! WARNING: Final Active Orbitals Maybe Different from the Original !!!

    Based on projections of maximum overlap method:
           5A -> 9A        RESTRICTED_UOCC
  Orbital rotations on spin-free RDMs ...
    Transformed 1 RDMs.
    Transformed 2 RDMs.

  Time to prepare integrals:        0.276 seconds
  Time to run job          :        2.171 seconds
  Total                    :        2.447 seconds
    Orthogonalizing basis for space RIBS.
    0 linear dependencies will be 'removed'.
    Projecting out 'ALL' from 'RIBS' to obtain space 'CABS'
    0 linear dependencies will be 'removed'.
        Orbital space before projecting out:    (n = 1): 92  
        Orbital space after projecting out:     (n = 1): 69  

*********************************************************************************************************************
When computing potential integrals with different bra and ket basis, the atom definition is taken from the bra basis.
*********************************************************************************************************************
*********************************************************************************************************************
When computing potential integrals with different bra and ket basis, the atom definition is taken from the bra basis.
*********************************************************************************************************************
*********************************************************************************************************************
When computing potential integrals with different bra and ket basis, the atom definition is taken from the bra basis.
*********************************************************************************************************************
*********************************************************************************************************************
When computing potential integrals with different bra and ket basis, the atom definition is taken from the bra basis.
*********************************************************************************************************************
*********************************************************************************************************************
When computing potential integrals with different bra and ket basis, the atom definition is taken from the bra basis.
*********************************************************************************************************************
*********************************************************************************************************************
When computing potential integrals with different bra and ket basis, the atom definition is taken from the bra basis.
*********************************************************************************************************************
*********************************************************************************************************************
When computing potential integrals with different bra and ket basis, the atom definition is taken from the bra basis.
*********************************************************************************************************************
*********************************************************************************************************************
When computing potential integrals with different bra and ket basis, the atom definition is taken from the bra basis.
*********************************************************************************************************************
*********************************************************************************************************************
When computing potential integrals with different bra and ket basis, the atom definition is taken from the bra basis.
*********************************************************************************************************************
*********************************************************************************************************************
When computing potential integrals with different bra and ket basis, the atom definition is taken from the bra basis.
*********************************************************************************************************************
*********************************************************************************************************************
When computing potential integrals with different bra and ket basis, the atom definition is taken from the bra basis.
*********************************************************************************************************************
*********************************************************************************************************************
When computing potential integrals with different bra and ket basis, the atom definition is taken from the bra basis.
*********************************************************************************************************************
*********************************************************************************************************************
When computing potential integrals with different bra and ket basis, the atom definition is taken from the bra basis.
*********************************************************************************************************************
*********************************************************************************************************************
When computing potential integrals with different bra and ket basis, the atom definition is taken from the bra basis.
*********************************************************************************************************************
*********************************************************************************************************************
When computing potential integrals with different bra and ket basis, the atom definition is taken from the bra basis.
*********************************************************************************************************************
*********************************************************************************************************************
When computing potential integrals with different bra and ket basis, the atom definition is taken from the bra basis.
*********************************************************************************************************************
*********************************************************************************************************************
When computing potential integrals with different bra and ket basis, the atom definition is taken from the bra basis.
*********************************************************************************************************************
*********************************************************************************************************************
When computing potential integrals with different bra and ket basis, the atom definition is taken from the bra basis.
*********************************************************************************************************************
*********************************************************************************************************************
When computing potential integrals with different bra and ket basis, the atom definition is taken from the bra basis.
*********************************************************************************************************************
*********************************************************************************************************************
When computing potential integrals with different bra and ket basis, the atom definition is taken from the bra basis.
*********************************************************************************************************************
*********************************************************************************************************************
When computing potential integrals with different bra and ket basis, the atom definition is taken from the bra basis.
*********************************************************************************************************************
*********************************************************************************************************************
When computing potential integrals with different bra and ket basis, the atom definition is taken from the bra basis.
*********************************************************************************************************************
*********************************************************************************************************************
When computing potential integrals with different bra and ket basis, the atom definition is taken from the bra basis.
*********************************************************************************************************************
*********************************************************************************************************************
When computing potential integrals with different bra and ket basis, the atom definition is taken from the bra basis.
*********************************************************************************************************************
*********************************************************************************************************************
When computing potential integrals with different bra and ket basis, the atom definition is taken from the bra basis.
*********************************************************************************************************************
*********************************************************************************************************************
When computing potential integrals with different bra and ket basis, the atom definition is taken from the bra basis.
*********************************************************************************************************************
*********************************************************************************************************************
When computing potential integrals with different bra and ket basis, the atom definition is taken from the bra basis.
*********************************************************************************************************************
*********************************************************************************************************************
When computing potential integrals with different bra and ket basis, the atom definition is taken from the bra basis.
*********************************************************************************************************************
*********************************************************************************************************************
When computing potential integrals with different bra and ket basis, the atom definition is taken from the bra basis.
*********************************************************************************************************************
*********************************************************************************************************************
When computing potential integrals with different bra and ket basis, the atom definition is taken from the bra basis.
*********************************************************************************************************************
*********************************************************************************************************************
When computing potential integrals with different bra and ket basis, the atom definition is taken from the bra basis.
*********************************************************************************************************************
*********************************************************************************************************************
When computing potential integrals with different bra and ket basis, the atom definition is taken from the bra basis.
*********************************************************************************************************************
*********************************************************************************************************************
When computing potential integrals with different bra and ket basis, the atom definition is taken from the bra basis.
*********************************************************************************************************************
*********************************************************************************************************************
When computing potential integrals with different bra and ket basis, the atom definition is taken from the bra basis.
*********************************************************************************************************************
*********************************************************************************************************************
When computing potential integrals with different bra and ket basis, the atom definition is taken from the bra basis.
*********************************************************************************************************************
*********************************************************************************************************************
When computing potential integrals with different bra and ket basis, the atom definition is taken from the bra basis.
*********************************************************************************************************************
*********************************************************************************************************************
When computing potential integrals with different bra and ket basis, the atom definition is taken from the bra basis.
*********************************************************************************************************************
*********************************************************************************************************************
When computing potential integrals with different bra and ket basis, the atom definition is taken from the bra basis.
*********************************************************************************************************************
*********************************************************************************************************************
When computing potential integrals with different bra and ket basis, the atom definition is taken from the bra basis.
*********************************************************************************************************************
*********************************************************************************************************************
When computing potential integrals with different bra and ket basis, the atom definition is taken from the bra basis.
*********************************************************************************************************************
*********************************************************************************************************************
When computing potential integrals with different bra and ket basis, the atom definition is taken from the bra basis.
*********************************************************************************************************************
*********************************************************************************************************************
When computing potential integrals with different bra and ket basis, the atom definition is taken from the bra basis.
*********************************************************************************************************************
*********************************************************************************************************************
When computing potential integrals with different bra and ket basis, the atom definition is taken from the bra basis.
*********************************************************************************************************************
*********************************************************************************************************************
When computing potential integrals with different bra and ket basis, the atom definition is taken from the bra basis.
*********************************************************************************************************************
*********************************************************************************************************************
When computing potential integrals with different bra and ket basis, the atom definition is taken from the bra basis.
*********************************************************************************************************************
*********************************************************************************************************************
When computing potential integrals with different bra and ket basis, the atom definition is taken from the bra basis.
*********************************************************************************************************************
*********************************************************************************************************************
When computing potential integrals with different bra and ket basis, the atom definition is taken from the bra basis.
*********************************************************************************************************************
*********************************************************************************************************************
When computing potential integrals with different bra and ket basis, the atom definition is taken from the bra basis.
*********************************************************************************************************************
*********************************************************************************************************************
When computing potential integrals with different bra and ket basis, the atom definition is taken from the bra basis.
*********************************************************************************************************************
*********************************************************************************************************************
When computing potential integrals with different bra and ket basis, the atom definition is taken from the bra basis.
*********************************************************************************************************************
*********************************************************************************************************************
When computing potential integrals with different bra and ket basis, the atom definition is taken from the bra basis.
*********************************************************************************************************************
*********************************************************************************************************************
When computing potential integrals with different bra and ket basis, the atom definition is taken from the bra basis.
*********************************************************************************************************************
*********************************************************************************************************************
When computing potential integrals with different bra and ket basis, the atom definition is taken from the bra basis.
*********************************************************************************************************************
*********************************************************************************************************************
When computing potential integrals with different bra and ket basis, the atom definition is taken from the bra basis.
*********************************************************************************************************************
*********************************************************************************************************************
When computing potential integrals with different bra and ket basis, the atom definition is taken from the bra basis.
*********************************************************************************************************************
*********************************************************************************************************************
When computing potential integrals with different bra and ket basis, the atom definition is taken from the bra basis.
*********************************************************************************************************************
*********************************************************************************************************************
When computing potential integrals with different bra and ket basis, the atom definition is taken from the bra basis.
*********************************************************************************************************************
*********************************************************************************************************************
When computing potential integrals with different bra and ket basis, the atom definition is taken from the bra basis.
*********************************************************************************************************************
*********************************************************************************************************************
When computing potential integrals with different bra and ket basis, the atom definition is taken from the bra basis.
*********************************************************************************************************************
*********************************************************************************************************************
When computing potential integrals with different bra and ket basis, the atom definition is taken from the bra basis.
*********************************************************************************************************************
*********************************************************************************************************************
When computing potential integrals with different bra and ket basis, the atom definition is taken from the bra basis.
*********************************************************************************************************************
*********************************************************************************************************************
When computing potential integrals with different bra and ket basis, the atom definition is taken from the bra basis.
*********************************************************************************************************************
*********************************************************************************************************************
When computing potential integrals with different bra and ket basis, the atom definition is taken from the bra basis.
*********************************************************************************************************************
*********************************************************************************************************************
When computing potential integrals with different bra and ket basis, the atom definition is taken from the bra basis.
*********************************************************************************************************************
*********************************************************************************************************************
When computing potential integrals with different bra and ket basis, the atom definition is taken from the bra basis.
*********************************************************************************************************************
*********************************************************************************************************************
When computing potential integrals with different bra and ket basis, the atom definition is taken from the bra basis.
*********************************************************************************************************************
*********************************************************************************************************************
When computing potential integrals with different bra and ket basis, the atom definition is taken from the bra basis.
*********************************************************************************************************************
*********************************************************************************************************************
When computing potential integrals with different bra and ket basis, the atom definition is taken from the bra basis.
*********************************************************************************************************************
*********************************************************************************************************************
When computing potential integrals with different bra and ket basis, the atom definition is taken from the bra basis.
*********************************************************************************************************************
*********************************************************************************************************************
When computing potential integrals with different bra and ket basis, the atom definition is taken from the bra basis.
*********************************************************************************************************************
*********************************************************************************************************************
When computing potential integrals with different bra and ket basis, the atom definition is taken from the bra basis.
*********************************************************************************************************************
*********************************************************************************************************************
When computing potential integrals with different bra and ket basis, the atom definition is taken from the bra basis.
*********************************************************************************************************************

Scratch directory: /home/sydong/scratch/psi4/

  Forte
  ----------------------------------------------------------------------------
  A suite of quantum chemistry methods for strongly correlated electrons

    git branch: ct_forte - git commit: 41562031

  Developed by:
    Francesco A. Evangelista, Chenyang Li, Kevin P. Hannon,
    Jeffrey B. Schriber, Tianyuan Zhang, Chenxi Cai,
    Nan He, Nicholas Stair, Shuhe Wang, Renke Huang
  ----------------------------------------------------------------------------

  Forte will use options passed as a dictionary. Option read from psi4 will be ignored

  Forte will use custom integrals
  Preparing forte objects from a custom source

  Reading integral information from FCIDUMP file AUG-CC-PVDZMR_SIG.DUMP

  ==> MO Space Information <==

  -------------------------------
                        A   Sum
  -------------------------------
    FROZEN_DOCC         0     0
    RESTRICTED_DOCC     2     2
    GAS1                4     4
    GAS2                0     0
    GAS3                0     0
    GAS4                0     0
    GAS5                0     0
    GAS6                0     0
    RESTRICTED_UOCC    17    17
    FROZEN_UOCC         0     0
    Total              23    23
  -------------------------------

  ==> Integral Transformation <==

  Number of molecular orbitals:                         23
  Number of correlated molecular orbitals:              23
  Number of frozen occupied orbitals:                    0
  Number of frozen unoccupied orbitals:                  0
  Two-electron integral type:                       Custom


  Timing for freezing core and virtual orbitals:              0.000 s.
  Timing for preparing custom integrals:                      0.000 s.

          -----------------------------------------------------------
                  Multi-Configurational Self Consistent Field
                Two-Step Approximate Second-Order AO Algorithm
            written by Chenyang Li, Kevin P. Hannon, and Shuhe Wang
          -----------------------------------------------------------


  ==> MCSCF Calculation Information <==

    --------------------------------------------------------
    Print level                                      Default
    Integral type                                    FCIDUMP
    CI solver type                                       FCI
    Final orbital type                             CANONICAL
    Derivative type                                     NONE
    Optimize orbitals                                   TRUE
    Include internal rotations                         FALSE
    Debug printing                                     FALSE
    Energy convergence                             1.000e-10
    Gradient convergence                           1.000e-06
    Max value for rotation                         2.000e-01
    Max number of macro iter.                            100
    Max number of micro iter. for orbitals                 4
    Max number of micro iter. for CI                      12
    DIIS start                                            15
    Min DIIS vectors                                       3
    Max DIIS vectors                                       8
    Frequency of DIIS extrapolation                        1
    --------------------------------------------------------

  ==> Independent Orbital Rotations <==

    ORBITAL SPACES                         A
    ----------------------------------------
             ACTIVE / RESTRICTED_DOCC      8
    RESTRICTED_UOCC /          ACTIVE     68
    RESTRICTED_UOCC / RESTRICTED_DOCC     34
    ----------------------------------------

  ==> String Lists <==

    --------------------------------------------------------
    number of alpha electrons                              3
    number of beta electrons                               3
    number of alpha strings                                4
    number of beta strings                                 4
    --------------------------------------------------------

  ==> FCI Solver <==

    --------------------------------------------------------
    Spin adapt                                         FALSE
    Number of determinants                                16
    Symmetry                                               0
    Multiplicity                                           1
    Number of roots                                        1
    Target root                                            0
    --------------------------------------------------------

  ==> Initial Guess <==

  Initial guess determinants:         16

  Classification of the initial guess solutions

  Number   2S+1   Selected
  ------------------------
    10       1       *
     6       3        
  ------------------------

    Spin    Root           Energy        <S^2>    Status
  -------------------------------------------------------
   singlet    0     -128.592022741563  +0.000000  added
  -------------------------------------------------------

  ==> Davidson-Liu Solver <==

    --------------------------------------------------------
    Print level                                      Default
    Energy convergence threshold                   1.000e-10
    Residual convergence threshold                 1.000e-08
    Schmidt orthogonality threshold                1.000e-12
    Schmidt discard threshold                      1.000e-07
    Size of the space                                     16
    Number of roots                                        1
    Maximum number of iterations                         100
    Collapse subspace size                                 2
    Maximum subspace size                                 10
    --------------------------------------------------------

  Davidson-Liu solver: adding 1 guess vectors
  Iteration     Average Energy            max(∆E)            max(Residual)  Vectors
  ---------------------------------------------------------------------------------
       0     -128.592022741563      128.592022741563        0.000000000000      1
       1     -128.592022741563        0.000000000000        0.000000000005      2
  ---------------------------------------------------------------------------------

  ==> Root No. 0 <==

    2220     -0.99995870

    Total Energy:    -128.592022741563, <S^2>: 0.000000
    Time for FCI:       0.002055701000

  ==> Energy Summary <==

    Multi.(2ms)  Irrep.  No.               Energy      <S^2>
    --------------------------------------------------------
       1  (  0)     A     0     -128.592022741563   0.000000
    --------------------------------------------------------

  ==> Natural Orbitals <==

        3A      1.999948      4A      1.999948      5A      1.999938  
        6A      0.000165  

 sydong:  unsymmetrize 2RDM


  ==> MCSCF Iterations <==

                      Energy CI                    Energy Orbital
           ------------------------------  ------------------------------
    Iter.        Total Energy       Delta        Total Energy       Delta  Orb. Grad.  Micro
    ----------------------------------------------------------------------------------------
 sydong:  unsymmetrize 2RDM

  Integrals are about to be updated.
  Timing for freezing core and virtual orbitals:              0.000 s.
  Integrals update took     0.080 s.
  L-BFGS Warning: Skip this vector due to negative rho
  Integrals are about to be updated.
  Timing for freezing core and virtual orbitals:              0.000 s.
  Integrals update took     0.070 s.
  L-BFGS Warning: Skip this vector due to negative rho
  Integrals are about to be updated.
  Timing for freezing core and virtual orbitals:              0.000 s.
  Integrals update took     0.067 s.
  L-BFGS Warning: Skip this vector due to negative rho
  Integrals are about to be updated.
  Timing for freezing core and virtual orbitals:              0.000 s.
  Integrals update took     0.071 s.
       1    -128.592022741563 -1.2859e+02   -128.593127655371 -1.2859e+02  8.6329e-05    4/N
 sydong:  unsymmetrize 2RDM

  Integrals are about to be updated.
  Timing for freezing core and virtual orbitals:              0.000 s.
  Integrals update took     0.069 s.
  Integrals are about to be updated.
  Timing for freezing core and virtual orbitals:              0.000 s.
  Integrals update took     0.071 s.
  Integrals are about to be updated.
  Timing for freezing core and virtual orbitals:              0.000 s.
  Integrals update took     0.067 s.
  L-BFGS Warning: Skip this vector due to negative rho
  Integrals are about to be updated.
  Timing for freezing core and virtual orbitals:              0.000 s.
  Integrals update took     0.070 s.
       2    -128.593903690009 -1.8809e-03   -128.594023724122 -8.9607e-04  3.9088e-04    4/N
 sydong:  unsymmetrize 2RDM

  Integrals are about to be updated.
  Timing for freezing core and virtual orbitals:              0.000 s.
  Integrals update took     0.068 s.
  L-BFGS Warning: Skip this vector due to negative rho
  Integrals are about to be updated.
  Timing for freezing core and virtual orbitals:              0.000 s.
  Integrals update took     0.069 s.
  L-BFGS Warning: Skip this vector due to negative rho
  Integrals are about to be updated.
  Timing for freezing core and virtual orbitals:              0.000 s.
  Integrals update took     0.072 s.
  L-BFGS Warning: Skip this vector due to negative rho
  Integrals are about to be updated.
  Timing for freezing core and virtual orbitals:              0.000 s.
  Integrals update took     0.069 s.
       3    -128.594068157976 -1.6447e-04   -128.595126617877 -1.1029e-03  3.1506e-04    4/N
 sydong:  unsymmetrize 2RDM

  Integrals are about to be updated.
  Timing for freezing core and virtual orbitals:              0.000 s.
  Integrals update took     0.070 s.
  Integrals are about to be updated.
  Timing for freezing core and virtual orbitals:              0.000 s.
  Integrals update took     0.069 s.
  Integrals are about to be updated.
  Timing for freezing core and virtual orbitals:              0.000 s.
  Integrals update took     0.070 s.
  Integrals are about to be updated.
  Timing for freezing core and virtual orbitals:              0.000 s.
  Integrals update took     0.070 s.
       4    -128.595517328665 -1.4492e-03   -128.597118944004 -1.9923e-03  5.8178e-04    4/N
 sydong:  unsymmetrize 2RDM

  Integrals are about to be updated.
  Timing for freezing core and virtual orbitals:              0.000 s.
  Integrals update took     0.080 s.
  Integrals are about to be updated.
  Timing for freezing core and virtual orbitals:              0.000 s.
  Integrals update took     0.071 s.
  Integrals are about to be updated.
  Timing for freezing core and virtual orbitals:              0.000 s.
  Integrals update took     0.071 s.
  Integrals are about to be updated.
  Timing for freezing core and virtual orbitals:              0.000 s.
  Integrals update took     0.072 s.
       5    -128.597135416335 -1.6181e-03   -128.597137656472 -1.8712e-05  4.6064e-04    4/N
 sydong:  unsymmetrize 2RDM

  Integrals are about to be updated.
  Timing for freezing core and virtual orbitals:              0.000 s.
  Integrals update took     0.069 s.
  Integrals are about to be updated.
  Timing for freezing core and virtual orbitals:              0.000 s.
  Integrals update took     0.070 s.
  Integrals are about to be updated.
  Timing for freezing core and virtual orbitals:              0.000 s.
  Integrals update took     0.071 s.
  Integrals are about to be updated.
  Timing for freezing core and virtual orbitals:              0.000 s.
  Integrals update took     0.069 s.
       6    -128.597137951238 -2.5349e-06   -128.597138000335 -3.4386e-07  1.2510e-05    4/N
 sydong:  unsymmetrize 2RDM

  Integrals are about to be updated.
  Timing for freezing core and virtual orbitals:              0.000 s.
  Integrals update took     0.072 s.
  Integrals are about to be updated.
  Timing for freezing core and virtual orbitals:              0.000 s.
  Integrals update took     0.070 s.
  Integrals are about to be updated.
  Timing for freezing core and virtual orbitals:              0.000 s.
  Integrals update took     0.071 s.
  Integrals are about to be updated.
  Timing for freezing core and virtual orbitals:              0.000 s.
  Integrals update took     0.070 s.
       7    -128.597138009174 -5.7935e-08   -128.597138010872 -1.0537e-08  1.5412e-06    4/N
 sydong:  unsymmetrize 2RDM

  Integrals are about to be updated.
  Timing for freezing core and virtual orbitals:              0.000 s.
  Integrals update took     0.078 s.
  Integrals are about to be updated.
  Timing for freezing core and virtual orbitals:              0.000 s.
  Integrals update took     0.068 s.
  Integrals are about to be updated.
  Timing for freezing core and virtual orbitals:              0.000 s.
  Integrals update took     0.068 s.
       8    -128.597138011294 -2.1206e-09   -128.597138011455 -5.8299e-10  1.4769e-07    3/Y
 sydong:  unsymmetrize 2RDM

       9    -128.597138011547 -2.5256e-10   -128.597138011547 -9.2115e-11  1.3034e-07    0/Y
 sydong:  unsymmetrize 2RDM

      10    -128.597138011547  0.0000e+00   -128.597138011547 -2.8422e-14  4.8288e-15    0/Y
    ----------------------------------------------------------------------------------------

  A miracle has come to pass: MCSCF iterations have converged!

  Performing final CI Calculation using converged orbitals

  ==> String Lists <==

    --------------------------------------------------------
    number of alpha electrons                              3
    number of beta electrons                               3
    number of alpha strings                                4
    number of beta strings                                 4
    --------------------------------------------------------

  ==> FCI Solver <==

    --------------------------------------------------------
    Spin adapt                                         FALSE
    Number of determinants                                16
    Symmetry                                               0
    Multiplicity                                           1
    Number of roots                                        1
    Target root                                            0
    --------------------------------------------------------

  ==> Initial Guess <==

  Initial guess determinants:         16

  Classification of the initial guess solutions

  Number   2S+1   Selected
  ------------------------
    10       1       *
     6       3        
  ------------------------

    Spin    Root           Energy        <S^2>    Status
  -------------------------------------------------------
   singlet    0     -128.597138011547  +0.000000  added
  -------------------------------------------------------

  ==> Davidson-Liu Solver <==

    --------------------------------------------------------
    Print level                                      Default
    Energy convergence threshold                   1.000e-10
    Residual convergence threshold                 1.000e-08
    Schmidt orthogonality threshold                1.000e-12
    Schmidt discard threshold                      1.000e-07
    Size of the space                                     16
    Number of roots                                        1
    Maximum number of iterations                         100
    Collapse subspace size                                 2
    Maximum subspace size                                 10
    --------------------------------------------------------

  Davidson-Liu solver: adding 1 guess vectors
  Iteration     Average Energy            max(∆E)            max(Residual)  Vectors
  ---------------------------------------------------------------------------------
       0     -128.597138011547        0.000000000000        0.000000000000      1
  ---------------------------------------------------------------------------------

  ==> Root No. 0 <==

    2220     -0.99965403
    2202      0.02437179

    Total Energy:    -128.597138011547, <S^2>: -0.000000
    Time for FCI:       0.000776604000

  ==> Energy Summary <==

    Multi.(2ms)  Irrep.  No.               Energy      <S^2>
    --------------------------------------------------------
       1  (  0)     A     0     -128.597138011547  -0.000000
    --------------------------------------------------------

  ==> Natural Orbitals <==

        3A      1.999902      4A      1.999902      5A      1.998812  
        6A      0.001384  


  Time to prepare integrals:        0.136 seconds
  Time to run job          :       10.891 seconds
  Total                    :       11.028 seconds
