
    -----------------------------------------------------------------------
          Psi4: An Open-Source Ab Initio Electronic Structure Package
                               Psi4 1.9.1 release

                         Git: Rev {HEAD} f53cdd7 


    D. G. A. Smith, L. A. Burns, A. C. Simmonett, R. M. Parrish,
    M. C. Schieber, R. Galvelis, P. Kraus, H. Kruse, R. Di Remigio,
    A. Alenaizan, A. M. James, S. Lehtola, J. P. Misiewicz, M. Scheurer,
    R. A. Shaw, J. B. Schriber, Y. Xie, Z. L. Glick, D. A. Sirianni,
    J. S. O'Brien, J. M. Waldrop, A. Kumar, E. G. Hohenstein,
    B. P. Pritchard, B. R. Brooks, H. F. Schaefer III, A. Yu. Sokolov,
    K. Patkowski, A. E. DePrince III, U. Bozkaya, R. A. King,
    F. A. Evangelista, J. M. Turney, T. D. Crawford, C. D. Sherrill,
    J. Chem. Phys. 152(18) 184108 (2020). https://doi.org/10.1063/5.0006002

                            Additional Code Authors
    E. T. Seidl, C. L. Janssen, E. F. Valeev, M. L. Leininger,
    J. F. Gonthier, R. M. Richard, H. R. McAlexander, M. Saitow, X. Wang,
    P. Verma, M. H. Lechner, A. Jiang, S. Behnle, A. G. Heide,
    M. F. Herbst, and D. L. Poole

             Previous Authors, Complete List of Code Contributors,
                       and Citations for Specific Modules
    https://github.com/psi4/psi4/blob/master/codemeta.json
    https://github.com/psi4/psi4/graphs/contributors
    http://psicode.org/psi4manual/master/introduction.html#citing-psifour

    -----------------------------------------------------------------------


    Psi4 started on: Saturday, 10 May 2025 03:54PM

    Process ID: 3178815
    Host:       debianlab
    PSIDATADIR: /home/sydong/install_tutorial/psi4/share/psi4
    Memory:     500.0 MiB
    Threads:    1
      Threads set to 36 by Python driver.

  Memory set to 279.397 GiB by Python driver.

Scratch directory: /home/sydong/scratch/psi4/
   => Libint2 <=

    Primary   basis highest AM E, G, H:  6, 6, 3
    Auxiliary basis highest AM E, G, H:  7, 7, 4
    Onebody   basis highest AM E, G, H:  -, -, -
    Solid Harmonics ordering:            Gaussian

*** tstart() called on debianlab
*** at Sat May 10 15:54:16 2025

   => Loading Basis Set <=

    Name: AUG-CC-PVDZ
    Role: ORBITAL
    Keyword: BASIS
    atoms 1-2 entry NE         line   326 file /home/sydong/install_tutorial/psi4/share/psi4/basis/aug-cc-pvdz.gbs 


         ---------------------------------------------------------
                                   SCF
               by Justin Turney, Rob Parrish, Andy Simmonett
                          and Daniel G. A. Smith
                              RHF Reference
                       36 Threads, 286102 MiB Core
         ---------------------------------------------------------

  ==> Geometry <==

    Molecular point group: c1
    Full point group: D_inf_h

    Geometry (in Angstrom), charge = 0, multiplicity = 1:

       Center              X                  Y                   Z               Mass       
    ------------   -----------------  -----------------  -----------------  -----------------
         NE           0.000000000000     0.000000000000   -50.000000000000    19.992440176200
         NE           0.000000000000     0.000000000000    50.000000000000    19.992440176200

  Running in c1 symmetry.

  Rotational constants: A = ************  B =      0.00017  C =      0.00017 [cm^-1]
  Rotational constants: A = ************  B =      5.05570  C =      5.05570 [MHz]
  Nuclear repulsion =    0.529177210670000

  Charge       = 0
  Multiplicity = 1
  Electrons    = 20
  Nalpha       = 10
  Nbeta        = 10

  ==> Algorithm <==

  SCF Algorithm Type is PK.
  DIIS enabled.
  MOM disabled.
  Fractional occupation disabled.
  Guess Type is SAD.
  Energy threshold   = 1.00e-10
  Density threshold  = 1.00e-08
  Integral threshold = 1.00e-12

  ==> Primary Basis <==

  Basis Set: AUG-CC-PVDZ
    Blend: AUG-CC-PVDZ
    Number of shells: 18
    Number of basis functions: 46
    Number of Cartesian functions: 50
    Spherical Harmonics?: true
    Max angular momentum: 2

  ==> Integral Setup <==

  Using in-core PK algorithm.
   Calculation information:
      Number of atoms:                   2
      Number of AO shells:              18
      Number of primitives:             50
      Number of atomic orbitals:        50
      Number of basis functions:        46

      Integral cutoff                 1.00e-12
      Number of threads:                36

  Performing in-core PK
  Using 1169642 doubles for integral storage.
  We computed 17523 shell quartets total.
  Whereas there are 14706 unique shell quartets.
    19.16 percent of shell quartets recomputed by reordering.

  ==> DiskJK: Disk-Based J/K Matrices <==

    J tasked:                  Yes
    K tasked:                  Yes
    wK tasked:                  No
    Memory [MiB]:           214576
    Schwarz Cutoff:          1E-12

    OpenMP threads:             36

  Minimum eigenvalue in the overlap matrix is 9.8616913390E-02.
  Reciprocal condition number of the overlap matrix is 4.4899065075E-02.
    Using symmetric orthogonalization.

  ==> Pre-Iterations <==

  SCF Guess: Superposition of Atomic Densities via on-the-fly atomic UHF (no occupation information).

   -------------------------
    Irrep   Nso     Nmo    
   -------------------------
     A         46      46 
   -------------------------
    Total      46      46
   -------------------------

  ==> Iterations <==

                        Total Energy        Delta E     RMS |[F,P]|

   @RHF iter SAD:  -256.99269445846414   -2.56993e+02   0.00000e+00 
   @RHF iter   1:  -256.99269837152229   -3.91306e-06   4.48016e-05 DIIS
   @RHF iter   2:  -256.99269919528359   -8.23761e-07   2.28154e-05 DIIS
   @RHF iter   3:  -256.99269946093949   -2.65656e-07   3.74422e-07 DIIS
   @RHF iter   4:  -256.99269946108149   -1.41995e-10   7.87684e-09 DIIS
   @RHF iter   5:  -256.99269946108143    5.68434e-14   1.06097e-09 DIIS
  Energy and wave function converged.


  ==> Post-Iterations <==

    Orbital Energies [Eh]
    ---------------------

    Doubly Occupied:                                                      

       1A    -32.794951     2A    -32.794951     3A     -1.940421  
       4A     -1.940421     5A     -0.853040     6A     -0.853040  
       7A     -0.853040     8A     -0.853040     9A     -0.853040  
      10A     -0.853040  

    Virtual:                                                              

      11A      0.287355    12A      0.287355    13A      0.293011  
      14A      0.293011    15A      0.293011    16A      0.293011  
      17A      0.293011    18A      0.293011    19A      1.757692  
      20A      1.757692    21A      1.757692    22A      1.757692  
      23A      1.757692    24A      1.757692    25A      1.757692  
      26A      1.757692    27A      1.757692    28A      1.757692  
      29A      1.961351    30A      1.961351    31A      1.961351  
      32A      1.961351    33A      1.961351    34A      1.961351  
      35A      2.741966    36A      2.741966    37A      6.372473  
      38A      6.372473    39A      6.372473    40A      6.372473  
      41A      6.372473    42A      6.372473    43A      6.372473  
      44A      6.372473    45A      6.372473    46A      6.372473  

    Final Occupation by Irrep:
              A 
    DOCC [    10 ]
    NA   [    10 ]
    NB   [    10 ]

  @RHF Final Energy:  -256.99269946108143

   => Energetics <=

    Nuclear Repulsion Energy =              0.5291772106700001
    One-Electron Energy =                -365.8657844702759121
    Two-Electron Energy =                 108.3439077985244552
    Total Energy =                       -256.9926994610814290

Computation Completed


Properties will be evaluated at   0.000000,   0.000000,   0.000000 [a0]

Properties computed using the SCF density matrix


 Multipole Moments:

 ------------------------------------------------------------------------------------
     Multipole            Electronic (a.u.)      Nuclear  (a.u.)        Total (a.u.)
 ------------------------------------------------------------------------------------

 L = 1.  Multiply by 2.5417464519 to convert [e a0] to [Debye]
 Dipole X            :         -0.0000000            0.0000000           -0.0000000
 Dipole Y            :          0.0000000            0.0000000            0.0000000
 Dipole Z            :         -0.0000000            0.0000000           -0.0000000
 Magnitude           :                                                    0.0000000

 ------------------------------------------------------------------------------------

*** tstop() called on debianlab at Sat May 10 15:54:16 2025
Module time:
	user time   =       0.57 seconds =       0.01 minutes
	system time =       0.80 seconds =       0.01 minutes
	total time  =          0 seconds =       0.00 minutes
Total time:
	user time   =       0.57 seconds =       0.01 minutes
	system time =       0.80 seconds =       0.01 minutes
	total time  =          0 seconds =       0.00 minutes

Scratch directory: /home/sydong/scratch/psi4/

  Forte
  ----------------------------------------------------------------------------
  A suite of quantum chemistry methods for strongly correlated electrons

    git branch: ct_forte - git commit: 41562031

  Developed by:
    Francesco A. Evangelista, Chenyang Li, Kevin P. Hannon,
    Jeffrey B. Schriber, Tianyuan Zhang, Chenxi Cai,
    Nan He, Nicholas Stair, Shuhe Wang, Renke Huang
  ----------------------------------------------------------------------------

  Forte will use options passed as a dictionary. Option read from psi4 will be ignored


  Preparing forte objects from a Psi4 Wavefunction object Using basis set AUG-CC-PVDZ from Psi4 global options.   => Loading Basis Set <=

    Name: AUG-CC-PVDZ
    Role: ORBITAL
    Keyword: BASIS
    atoms 1-2 entry NE         line   326 file /home/sydong/install_tutorial/psi4/share/psi4/basis/aug-cc-pvdz.gbs 



  ==> MO Space Information <==

  -------------------------------
                        A   Sum
  -------------------------------
    FROZEN_DOCC         0     0
    RESTRICTED_DOCC     4     4
    GAS1                8     8
    GAS2                0     0
    GAS3                0     0
    GAS4                0     0
    GAS5                0     0
    GAS6                0     0
    RESTRICTED_UOCC    34    34
    FROZEN_UOCC         0     0
    Total              46    46
  -------------------------------   => Loading Basis Set <=

    Name: STO-3G
    Role: ORBITAL
    Keyword: MINAO_BASIS
    atoms 1-2 entry NE         line   101 file /home/sydong/install_tutorial/psi4/share/psi4/basis/sto-3g.gbs 



  ==> List of Subspace Orbitals Requested <==
     NE(2P,3S)


  ==> AO Basis Set Selected By Subspace <==

    =======================================
      AO  Atom  Label     Type  Coefficient
    ---------------------------------------
    ---------------------------------------
    Number of subspace orbitals:          0
    =======================================

  ==> Orbital Overlap with AO Subspace (> 1.00e-03) <==

    =======================
    Irrep   MO  <phi|P|phi>
    -----------------------
    ========================

                     --------------------------------------
                       Atomic Valence Active Space (AVAS)
                           Chenxi Cai and Chenyang Li
                     --------------------------------------


  ==> AVAS Options <==

    --------------------------------------------------------
    AVAS selection scheme                       # ACTIVE MOS
    Diagonalize projected overlap matrices              TRUE
    AVAS sigma threshold (cumulative)              9.800e-01
    AVAS sigma direct cutoff                       1.000e+00
    Nonzero eigenvalue threshold                   1.000e-06
    Number of doubly occupied MOs                         10
    Number of singly occupied MOs                          0
    Number of unoccupied MOs                              36
    # Active AVAS MOs requested                            8
    # Active occupied AVAS MOs requested                   0
    # Active virtual AVAS MOs requested                    0
    --------------------------------------------------------
  Diagonalizing the doubly occupied projected overlap matrix ... Done
  Diagonalizing the unoccupied projected overlap matrix ........ Done
  Sum of eigenvalues: 0.00000000
  AVAS covers -nan% of the subspace.

  ==> AVAS MOs Information <==

    ---------------------
                        A
    ---------------------
    DOCC INACTIVE       2
    DOCC ACTIVE         8
    SOCC ACTIVE         0
    UOCC ACTIVE         0
    UOCC INACTIVE      36
    ---------------------
    RESTRICTED_DOCC     2
    ACTIVE              8
    RESTRICTED_UOCC    36
    ---------------------

  ==> Atomic Valence MOs (Active Marked by *) <==

    ===============================
     Irrep    MO  Occ.  <phi|P|phi>
    -------------------------------
    ===============================

  ==> Semicanonicalize Subsets of Orbitals <==

  Canonicalizing orbital block INACTIVE DOCC ....... Done
  Canonicalizing orbital block ACTIVE DOCC ......... Done
  Canonicalizing orbital block ACTIVE UOCC ......... Done
  Canonicalizing orbital block INACTIVE UOCC ....... Done
  State Singlet (Ms = 0) A GAS min: 0 0 0 0 0 0 ; GAS max: 16 0 0 0 0 0 ; weights:
      1.000000000000
  Forte will use psi4 integrals

  ==> Primary Basis Set Summary <==

  Basis Set: AUG-CC-PVDZ
    Blend: AUG-CC-PVDZ
    Number of shells: 18
    Number of basis functions: 46
    Number of Cartesian functions: 50
    Spherical Harmonics?: true
    Max angular momentum: 2


  JK created using conventional PK integrals
  Using in-core PK algorithm.
   Calculation information:
      Number of atoms:                   2
      Number of AO shells:              18
      Number of primitives:             50
      Number of atomic orbitals:        50
      Number of basis functions:        46

      Integral cutoff                 1.00e-12
      Number of threads:                36

  Performing in-core PK
  Using 1169642 doubles for integral storage.
  We computed 17523 shell quartets total.
  Whereas there are 14706 unique shell quartets.
    19.16 percent of shell quartets recomputed by reordering.

  ==> DiskJK: Disk-Based J/K Matrices <==

    J tasked:                  Yes
    K tasked:                  Yes
    wK tasked:                  No
    Memory [MiB]:           228881
    Schwarz Cutoff:          1E-12

    OpenMP threads:             36



  ==> Integral Transformation <==

  Number of molecular orbitals:                         46
  Number of correlated molecular orbitals:              46
  Number of frozen occupied orbitals:                    0
  Number of frozen unoccupied orbitals:                  0
  Two-electron integral type:                 Conventional


  Skip integral allocation and transformation for AO-driven CASSCF.

          -----------------------------------------------------------
                  Multi-Configurational Self Consistent Field
                Two-Step Approximate Second-Order AO Algorithm
            written by Chenyang Li, Kevin P. Hannon, and Shuhe Wang
          -----------------------------------------------------------


  ==> MCSCF Calculation Information <==

    --------------------------------------------------------
    Print level                                      Default
    Integral type                               CONVENTIONAL
    CI solver type                                       FCI
    Final orbital type                             CANONICAL
    Derivative type                                     NONE
    Optimize orbitals                                   TRUE
    Include internal rotations                         FALSE
    Debug printing                                     FALSE
    Energy convergence                             1.000e-10
    Gradient convergence                           1.000e-10
    Max value for rotation                         2.000e-01
    Max number of macro iter.                            100
    Max number of micro iter. for orbitals                 6
    Max number of micro iter. for CI                      12
    DIIS start                                            15
    Min DIIS vectors                                       3
    Max DIIS vectors                                       8
    Frequency of DIIS extrapolation                        1
    --------------------------------------------------------

  ==> Independent Orbital Rotations <==

    ORBITAL SPACES                         A
    ----------------------------------------
             ACTIVE / RESTRICTED_DOCC     32
    RESTRICTED_UOCC /          ACTIVE    272
    RESTRICTED_UOCC / RESTRICTED_DOCC    136
    ----------------------------------------

  ==> String Lists <==

    --------------------------------------------------------
    number of alpha electrons                              6
    number of beta electrons                               6
    number of alpha strings                               28
    number of beta strings                                28
    --------------------------------------------------------

  ==> Spin Adapter <==

    Number of CSFs:                               336
    Number of couplings:                         1064

    Timing for identifying configurations:     0.0007
    Timing for finding the CSFs:               0.0009


  ==> FCI Solver <==

    --------------------------------------------------------
    Spin adapt                                          TRUE
    Number of determinants                               784
    Symmetry                                               0
    Multiplicity                                           1
    Number of roots                                        1
    Target root                                            0
    --------------------------------------------------------

  ==> Initial Guess <==

  Selected 1 CSF
  ---------------------------------------------
    CSF             Energy     <S^2>   Spin
  ---------------------------------------------
       0    -256.992699461081  0.000  singlet
  ---------------------------------------------
  Timing for initial guess  =      0.000 s


  ==> Davidson-Liu Solver <==

    --------------------------------------------------------
    Print level                                      Default
    Energy convergence threshold                   1.000e-10
    Residual convergence threshold                 1.000e-08
    Schmidt orthogonality threshold                1.000e-12
    Schmidt discard threshold                      1.000e-07
    Size of the space                                    336
    Number of roots                                        1
    Maximum number of iterations                         100
    Collapse subspace size                                 2
    Maximum subspace size                                 10
    --------------------------------------------------------

  Davidson-Liu solver: adding 1 guess vectors
  Iteration     Average Energy            max(∆E)            max(Residual)  Vectors
  ---------------------------------------------------------------------------------
       0     -256.992699461081      256.992699461081        0.041028454124      1
       1     -256.993180291580        0.000480830499        0.002266709551      2
       2     -256.993182185728        0.000001894148        0.000138723117      3
       3     -256.993182193350        0.000000007622        0.000010488673      4
       4     -256.993182193387        0.000000000037        0.000000182388      5
       5     -256.993182193386        0.000000000000        0.000000008637      6
  ---------------------------------------------------------------------------------

  ==> Root No. 0 <==

    22222200     -0.99992205

    Total Energy:    -256.993182193386, <S^2>: 0.000000
    Time for FCI:       0.111242542000

  ==> Energy Summary <==

    Multi.(2ms)  Irrep.  No.               Energy      <S^2>
    --------------------------------------------------------
       1  (  0)     A     0     -256.993182193386   0.000000
    --------------------------------------------------------
  Computing RDMs for dipole moments ... Done

  ==> Summary of Dipole Moments [e a0] (Nuclear + Electronic) <==

       State           DM_X           DM_Y           DM_Z           |DM|
    --------------------------------------------------------------------
          0A    -0.00000000     0.00000000    -0.00000000     0.00000000
    --------------------------------------------------------------------
     Nuclear     0.00000000     0.00000000     0.00000000     0.00000000
    --------------------------------------------------------------------

  ==> Natural Orbitals <==

        5A      1.999952      6A      1.999950      8A      1.999950  
        7A      1.999950      9A      1.999945     10A      1.999943  
       11A      0.000199     12A      0.000112  

 sydong:  unsymmetrize 2RDM


  ==> MCSCF Iterations <==

                      Energy CI                    Energy Orbital
           ------------------------------  ------------------------------
    Iter.        Total Energy       Delta        Total Energy       Delta  Orb. Grad.  Micro
    ----------------------------------------------------------------------------------------
 sydong:  unsymmetrize 2RDM

  L-BFGS Warning: Skip this vector due to negative rho
  L-BFGS Warning: Skip this vector due to negative rho
  L-BFGS Warning: Skip this vector due to negative rho
       1    -256.993182193386 -2.5699e+02   -256.997567387936 -2.5700e+02  2.1743e-04    6/N

  ==> Spin Adapter <==

    Number of CSFs:                               336
    Number of couplings:                         1064

    Timing for identifying configurations:     0.0007
    Timing for finding the CSFs:               0.0009


  Davidson-Liu solver: restarting from previous calculation.
 sydong:  unsymmetrize 2RDM

       2    -257.001744226245 -8.5620e-03   -257.002567081805 -4.9997e-03  2.6002e-04    6/N

  ==> Spin Adapter <==

    Number of CSFs:                               336
    Number of couplings:                         1064

    Timing for identifying configurations:     0.0007
    Timing for finding the CSFs:               0.0009


  Davidson-Liu solver: restarting from previous calculation.
 sydong:  unsymmetrize 2RDM

       3    -257.002973737539 -1.2295e-03   -257.003040664426 -4.7358e-04  7.3023e-05    6/N

  ==> Spin Adapter <==

    Number of CSFs:                               336
    Number of couplings:                         1064

    Timing for identifying configurations:     0.0007
    Timing for finding the CSFs:               0.0009


  Davidson-Liu solver: restarting from previous calculation.
 sydong:  unsymmetrize 2RDM

       4    -257.003048000871 -7.4263e-05   -257.003048547809 -7.8834e-06  8.2079e-06    6/N

  ==> Spin Adapter <==

    Number of CSFs:                               336
    Number of couplings:                         1064

    Timing for identifying configurations:     0.0007
    Timing for finding the CSFs:               0.0009


  Davidson-Liu solver: restarting from previous calculation.
 sydong:  unsymmetrize 2RDM

       5    -257.003048586901 -5.8603e-07   -257.003048589725 -4.1916e-08  6.7800e-07    6/N

  ==> Spin Adapter <==

    Number of CSFs:                               336
    Number of couplings:                         1064

    Timing for identifying configurations:     0.0006
    Timing for finding the CSFs:               0.0008


  Davidson-Liu solver: restarting from previous calculation.
 sydong:  unsymmetrize 2RDM

       6    -257.003048589941 -3.0407e-09   -257.003048589961 -2.3522e-10  4.5539e-08    6/N

  ==> Spin Adapter <==

    Number of CSFs:                               336
    Number of couplings:                         1064

    Timing for identifying configurations:     0.0006
    Timing for finding the CSFs:               0.0008


  Davidson-Liu solver: restarting from previous calculation.
 sydong:  unsymmetrize 2RDM

       7    -257.003048589963 -2.1430e-11   -257.003048589963 -2.3306e-12  3.3789e-09    6/N

  ==> Spin Adapter <==

    Number of CSFs:                               336
    Number of couplings:                         1064

    Timing for identifying configurations:     0.0005
    Timing for finding the CSFs:               0.0006


  Davidson-Liu solver: restarting from previous calculation.
 sydong:  unsymmetrize 2RDM

       8    -257.003048589963 -7.3896e-13   -257.003048589963 -1.1369e-13  8.7913e-10    6/N

  ==> Spin Adapter <==

    Number of CSFs:                               336
    Number of couplings:                         1064

    Timing for identifying configurations:     0.0007
    Timing for finding the CSFs:               0.0009


  Davidson-Liu solver: restarting from previous calculation.
 sydong:  unsymmetrize 2RDM

       9    -257.003048589963  3.4106e-13   -257.003048589963  0.0000e+00  1.3253e-10    6/N

  ==> Spin Adapter <==

    Number of CSFs:                               336
    Number of couplings:                         1064

    Timing for identifying configurations:     0.0007
    Timing for finding the CSFs:               0.0009


  Davidson-Liu solver: restarting from previous calculation.
 sydong:  unsymmetrize 2RDM

      10    -257.003048589963 -5.6843e-14   -257.003048589963 -5.6843e-14  2.7866e-11    5/Y
    ----------------------------------------------------------------------------------------

  A miracle has come to pass: MCSCF iterations have converged!

  Performing final CI Calculation using converged orbitals

  ==> String Lists <==

    --------------------------------------------------------
    number of alpha electrons                              6
    number of beta electrons                               6
    number of alpha strings                               28
    number of beta strings                                28
    --------------------------------------------------------

  ==> Spin Adapter <==

    Number of CSFs:                               336
    Number of couplings:                         1064

    Timing for identifying configurations:     0.0006
    Timing for finding the CSFs:               0.0009


  ==> FCI Solver <==

    --------------------------------------------------------
    Spin adapt                                          TRUE
    Number of determinants                               784
    Symmetry                                               0
    Multiplicity                                           1
    Number of roots                                        1
    Target root                                            0
    --------------------------------------------------------

  ==> Davidson-Liu Solver <==

    --------------------------------------------------------
    Print level                                      Default
    Energy convergence threshold                   1.000e-10
    Residual convergence threshold                 1.000e-08
    Schmidt orthogonality threshold                1.000e-12
    Schmidt discard threshold                      1.000e-07
    Size of the space                                    336
    Number of roots                                        1
    Maximum number of iterations                         100
    Collapse subspace size                                 2
    Maximum subspace size                                 10
    --------------------------------------------------------

  Davidson-Liu solver: restarting from previous calculation.
  Iteration     Average Energy            max(∆E)            max(Residual)  Vectors
  ---------------------------------------------------------------------------------
       0     -257.003048589963        0.000000000000        0.000000003649      1
  ---------------------------------------------------------------------------------

  ==> Root No. 0 <==

    22222200      0.99925949
    22222002     -0.02378445
    02222220     -0.01942471
    22220220     -0.01203849
    22202220     -0.01203849
    22022220     -0.01203849

    Total Energy:    -257.003048589963, <S^2>: 0.000000
    Time for FCI:       0.056820692000

  ==> Energy Summary <==

    Multi.(2ms)  Irrep.  No.               Energy      <S^2>
    --------------------------------------------------------
       1  (  0)     A     0     -257.003048589963   0.000000
    --------------------------------------------------------
  Computing RDMs for dipole moments ... Done

  ==> Summary of Dipole Moments [e a0] (Nuclear + Electronic) <==

       State           DM_X           DM_Y           DM_Z           |DM|
    --------------------------------------------------------------------
          0A    -0.00000000     0.00000000     0.00000000     0.00000000
    --------------------------------------------------------------------
     Nuclear     0.00000000     0.00000000     0.00000000     0.00000000
    --------------------------------------------------------------------

  ==> Natural Orbitals <==

        5A      1.999807      6A      1.999710      7A      1.999710  
        8A      1.999710      9A      1.999245     10A      1.998868  
       11A      0.001625     12A      0.001325  

  Canonicalizing final MCSCF orbitals

  ==> Semicanonicalize Orbitals <==

    MIX INACTIVE ORBITALS         TRUE
    MIX GAS ACTIVE ORBITALS       FALSE
    GAS1                          CANONICAL
    INACTIVE_DOCC                 CANONICAL
    INACTIVE_UOCC                 CANONICAL

    Off-Diag. Elements       Max           2-Norm
    ------------------------------------------------
    GAS1                 0.0032280533   0.0050264082
    INACTIVE_DOCC        0.0000000000   0.0000000000
    INACTIVE_UOCC        0.9770137238   3.1246416438
    ------------------------------------------------

    Canonicalization test failed

  Timing for orbital canonicalization:                        0.005 s.

  !!! WARNING: Final Active Orbitals Maybe Different from the Original !!!

    Based on projections of maximum overlap method:
          10A -> 18A       RESTRICTED_UOCC
          11A -> 19A       RESTRICTED_UOCC
  Orbital rotations on spin-free RDMs ...
    Transformed 1 RDMs.
    Transformed 2 RDMs.

  Time to prepare integrals:        0.273 seconds
  Time to run job          :       10.734 seconds
  Total                    :       11.007 seconds
    Orthogonalizing basis for space RIBS.
    0 linear dependencies will be 'removed'.
    Projecting out 'ALL' from 'RIBS' to obtain space 'CABS'
    0 linear dependencies will be 'removed'.
        Orbital space before projecting out:    (n = 1): 184  
        Orbital space after projecting out:     (n = 1): 138  

*********************************************************************************************************************
When computing potential integrals with different bra and ket basis, the atom definition is taken from the bra basis.
*********************************************************************************************************************
*********************************************************************************************************************
When computing potential integrals with different bra and ket basis, the atom definition is taken from the bra basis.
*********************************************************************************************************************
*********************************************************************************************************************
When computing potential integrals with different bra and ket basis, the atom definition is taken from the bra basis.
*********************************************************************************************************************
*********************************************************************************************************************
When computing potential integrals with different bra and ket basis, the atom definition is taken from the bra basis.
*********************************************************************************************************************
*********************************************************************************************************************
When computing potential integrals with different bra and ket basis, the atom definition is taken from the bra basis.
*********************************************************************************************************************
*********************************************************************************************************************
When computing potential integrals with different bra and ket basis, the atom definition is taken from the bra basis.
*********************************************************************************************************************
*********************************************************************************************************************
When computing potential integrals with different bra and ket basis, the atom definition is taken from the bra basis.
*********************************************************************************************************************
*********************************************************************************************************************
When computing potential integrals with different bra and ket basis, the atom definition is taken from the bra basis.
*********************************************************************************************************************
*********************************************************************************************************************
When computing potential integrals with different bra and ket basis, the atom definition is taken from the bra basis.
*********************************************************************************************************************
*********************************************************************************************************************
When computing potential integrals with different bra and ket basis, the atom definition is taken from the bra basis.
*********************************************************************************************************************
*********************************************************************************************************************
When computing potential integrals with different bra and ket basis, the atom definition is taken from the bra basis.
*********************************************************************************************************************
*********************************************************************************************************************
When computing potential integrals with different bra and ket basis, the atom definition is taken from the bra basis.
*********************************************************************************************************************
*********************************************************************************************************************
When computing potential integrals with different bra and ket basis, the atom definition is taken from the bra basis.
*********************************************************************************************************************
*********************************************************************************************************************
When computing potential integrals with different bra and ket basis, the atom definition is taken from the bra basis.
*********************************************************************************************************************
*********************************************************************************************************************
When computing potential integrals with different bra and ket basis, the atom definition is taken from the bra basis.
*********************************************************************************************************************
*********************************************************************************************************************
When computing potential integrals with different bra and ket basis, the atom definition is taken from the bra basis.
*********************************************************************************************************************
*********************************************************************************************************************
When computing potential integrals with different bra and ket basis, the atom definition is taken from the bra basis.
*********************************************************************************************************************
*********************************************************************************************************************
When computing potential integrals with different bra and ket basis, the atom definition is taken from the bra basis.
*********************************************************************************************************************
*********************************************************************************************************************
When computing potential integrals with different bra and ket basis, the atom definition is taken from the bra basis.
*********************************************************************************************************************
*********************************************************************************************************************
When computing potential integrals with different bra and ket basis, the atom definition is taken from the bra basis.
*********************************************************************************************************************
*********************************************************************************************************************
When computing potential integrals with different bra and ket basis, the atom definition is taken from the bra basis.
*********************************************************************************************************************
*********************************************************************************************************************
When computing potential integrals with different bra and ket basis, the atom definition is taken from the bra basis.
*********************************************************************************************************************
*********************************************************************************************************************
When computing potential integrals with different bra and ket basis, the atom definition is taken from the bra basis.
*********************************************************************************************************************
*********************************************************************************************************************
When computing potential integrals with different bra and ket basis, the atom definition is taken from the bra basis.
*********************************************************************************************************************
*********************************************************************************************************************
When computing potential integrals with different bra and ket basis, the atom definition is taken from the bra basis.
*********************************************************************************************************************
*********************************************************************************************************************
When computing potential integrals with different bra and ket basis, the atom definition is taken from the bra basis.
*********************************************************************************************************************
*********************************************************************************************************************
When computing potential integrals with different bra and ket basis, the atom definition is taken from the bra basis.
*********************************************************************************************************************
*********************************************************************************************************************
When computing potential integrals with different bra and ket basis, the atom definition is taken from the bra basis.
*********************************************************************************************************************
*********************************************************************************************************************
When computing potential integrals with different bra and ket basis, the atom definition is taken from the bra basis.
*********************************************************************************************************************
*********************************************************************************************************************
When computing potential integrals with different bra and ket basis, the atom definition is taken from the bra basis.
*********************************************************************************************************************
*********************************************************************************************************************
When computing potential integrals with different bra and ket basis, the atom definition is taken from the bra basis.
*********************************************************************************************************************
*********************************************************************************************************************
When computing potential integrals with different bra and ket basis, the atom definition is taken from the bra basis.
*********************************************************************************************************************
*********************************************************************************************************************
When computing potential integrals with different bra and ket basis, the atom definition is taken from the bra basis.
*********************************************************************************************************************
*********************************************************************************************************************
When computing potential integrals with different bra and ket basis, the atom definition is taken from the bra basis.
*********************************************************************************************************************
*********************************************************************************************************************
When computing potential integrals with different bra and ket basis, the atom definition is taken from the bra basis.
*********************************************************************************************************************
*********************************************************************************************************************
When computing potential integrals with different bra and ket basis, the atom definition is taken from the bra basis.
*********************************************************************************************************************
*********************************************************************************************************************
When computing potential integrals with different bra and ket basis, the atom definition is taken from the bra basis.
*********************************************************************************************************************
*********************************************************************************************************************
When computing potential integrals with different bra and ket basis, the atom definition is taken from the bra basis.
*********************************************************************************************************************
*********************************************************************************************************************
When computing potential integrals with different bra and ket basis, the atom definition is taken from the bra basis.
*********************************************************************************************************************
*********************************************************************************************************************
When computing potential integrals with different bra and ket basis, the atom definition is taken from the bra basis.
*********************************************************************************************************************
*********************************************************************************************************************
When computing potential integrals with different bra and ket basis, the atom definition is taken from the bra basis.
*********************************************************************************************************************
*********************************************************************************************************************
When computing potential integrals with different bra and ket basis, the atom definition is taken from the bra basis.
*********************************************************************************************************************
*********************************************************************************************************************
When computing potential integrals with different bra and ket basis, the atom definition is taken from the bra basis.
*********************************************************************************************************************
*********************************************************************************************************************
When computing potential integrals with different bra and ket basis, the atom definition is taken from the bra basis.
*********************************************************************************************************************
*********************************************************************************************************************
When computing potential integrals with different bra and ket basis, the atom definition is taken from the bra basis.
*********************************************************************************************************************
*********************************************************************************************************************
When computing potential integrals with different bra and ket basis, the atom definition is taken from the bra basis.
*********************************************************************************************************************
*********************************************************************************************************************
When computing potential integrals with different bra and ket basis, the atom definition is taken from the bra basis.
*********************************************************************************************************************
*********************************************************************************************************************
When computing potential integrals with different bra and ket basis, the atom definition is taken from the bra basis.
*********************************************************************************************************************
*********************************************************************************************************************
When computing potential integrals with different bra and ket basis, the atom definition is taken from the bra basis.
*********************************************************************************************************************
*********************************************************************************************************************
When computing potential integrals with different bra and ket basis, the atom definition is taken from the bra basis.
*********************************************************************************************************************
*********************************************************************************************************************
When computing potential integrals with different bra and ket basis, the atom definition is taken from the bra basis.
*********************************************************************************************************************
*********************************************************************************************************************
When computing potential integrals with different bra and ket basis, the atom definition is taken from the bra basis.
*********************************************************************************************************************
*********************************************************************************************************************
When computing potential integrals with different bra and ket basis, the atom definition is taken from the bra basis.
*********************************************************************************************************************
*********************************************************************************************************************
When computing potential integrals with different bra and ket basis, the atom definition is taken from the bra basis.
*********************************************************************************************************************
*********************************************************************************************************************
When computing potential integrals with different bra and ket basis, the atom definition is taken from the bra basis.
*********************************************************************************************************************
*********************************************************************************************************************
When computing potential integrals with different bra and ket basis, the atom definition is taken from the bra basis.
*********************************************************************************************************************
*********************************************************************************************************************
When computing potential integrals with different bra and ket basis, the atom definition is taken from the bra basis.
*********************************************************************************************************************
*********************************************************************************************************************
When computing potential integrals with different bra and ket basis, the atom definition is taken from the bra basis.
*********************************************************************************************************************
*********************************************************************************************************************
When computing potential integrals with different bra and ket basis, the atom definition is taken from the bra basis.
*********************************************************************************************************************
*********************************************************************************************************************
When computing potential integrals with different bra and ket basis, the atom definition is taken from the bra basis.
*********************************************************************************************************************
*********************************************************************************************************************
When computing potential integrals with different bra and ket basis, the atom definition is taken from the bra basis.
*********************************************************************************************************************
*********************************************************************************************************************
When computing potential integrals with different bra and ket basis, the atom definition is taken from the bra basis.
*********************************************************************************************************************
*********************************************************************************************************************
When computing potential integrals with different bra and ket basis, the atom definition is taken from the bra basis.
*********************************************************************************************************************
*********************************************************************************************************************
When computing potential integrals with different bra and ket basis, the atom definition is taken from the bra basis.
*********************************************************************************************************************
*********************************************************************************************************************
When computing potential integrals with different bra and ket basis, the atom definition is taken from the bra basis.
*********************************************************************************************************************
*********************************************************************************************************************
When computing potential integrals with different bra and ket basis, the atom definition is taken from the bra basis.
*********************************************************************************************************************
*********************************************************************************************************************
When computing potential integrals with different bra and ket basis, the atom definition is taken from the bra basis.
*********************************************************************************************************************
*********************************************************************************************************************
When computing potential integrals with different bra and ket basis, the atom definition is taken from the bra basis.
*********************************************************************************************************************
*********************************************************************************************************************
When computing potential integrals with different bra and ket basis, the atom definition is taken from the bra basis.
*********************************************************************************************************************
*********************************************************************************************************************
When computing potential integrals with different bra and ket basis, the atom definition is taken from the bra basis.
*********************************************************************************************************************
*********************************************************************************************************************
When computing potential integrals with different bra and ket basis, the atom definition is taken from the bra basis.
*********************************************************************************************************************
*********************************************************************************************************************
When computing potential integrals with different bra and ket basis, the atom definition is taken from the bra basis.
*********************************************************************************************************************

Scratch directory: /home/sydong/scratch/psi4/

  Forte
  ----------------------------------------------------------------------------
  A suite of quantum chemistry methods for strongly correlated electrons

    git branch: ct_forte - git commit: 41562031

  Developed by:
    Francesco A. Evangelista, Chenyang Li, Kevin P. Hannon,
    Jeffrey B. Schriber, Tianyuan Zhang, Chenxi Cai,
    Nan He, Nicholas Stair, Shuhe Wang, Renke Huang
  ----------------------------------------------------------------------------

  Forte will use options passed as a dictionary. Option read from psi4 will be ignored

  Forte will use custom integrals
  Preparing forte objects from a custom source

  Reading integral information from FCIDUMP file AUG-CC-PVDZMR_SIG.DUMP

  ==> MO Space Information <==

  -------------------------------
                        A   Sum
  -------------------------------
    FROZEN_DOCC         0     0
    RESTRICTED_DOCC     4     4
    GAS1                8     8
    GAS2                0     0
    GAS3                0     0
    GAS4                0     0
    GAS5                0     0
    GAS6                0     0
    RESTRICTED_UOCC    34    34
    FROZEN_UOCC         0     0
    Total              46    46
  -------------------------------

  ==> Integral Transformation <==

  Number of molecular orbitals:                         46
  Number of correlated molecular orbitals:              46
  Number of frozen occupied orbitals:                    0
  Number of frozen unoccupied orbitals:                  0
  Two-electron integral type:                       Custom


  Timing for freezing core and virtual orbitals:              0.000 s.
  Timing for preparing custom integrals:                      0.008 s.

          -----------------------------------------------------------
                  Multi-Configurational Self Consistent Field
                Two-Step Approximate Second-Order AO Algorithm
            written by Chenyang Li, Kevin P. Hannon, and Shuhe Wang
          -----------------------------------------------------------


  ==> MCSCF Calculation Information <==

    --------------------------------------------------------
    Print level                                      Default
    Integral type                                    FCIDUMP
    CI solver type                                       FCI
    Final orbital type                             CANONICAL
    Derivative type                                     NONE
    Optimize orbitals                                   TRUE
    Include internal rotations                         FALSE
    Debug printing                                     FALSE
    Energy convergence                             1.000e-10
    Gradient convergence                           1.000e-06
    Max value for rotation                         2.000e-01
    Max number of macro iter.                            100
    Max number of micro iter. for orbitals                 4
    Max number of micro iter. for CI                      12
    DIIS start                                            15
    Min DIIS vectors                                       3
    Max DIIS vectors                                       8
    Frequency of DIIS extrapolation                        1
    --------------------------------------------------------

  ==> Independent Orbital Rotations <==

    ORBITAL SPACES                         A
    ----------------------------------------
             ACTIVE / RESTRICTED_DOCC     32
    RESTRICTED_UOCC /          ACTIVE    272
    RESTRICTED_UOCC / RESTRICTED_DOCC    136
    ----------------------------------------

  ==> String Lists <==

    --------------------------------------------------------
    number of alpha electrons                              6
    number of beta electrons                               6
    number of alpha strings                               28
    number of beta strings                                28
    --------------------------------------------------------

  ==> FCI Solver <==

    --------------------------------------------------------
    Spin adapt                                         FALSE
    Number of determinants                               784
    Symmetry                                               0
    Multiplicity                                           1
    Number of roots                                        1
    Target root                                            0
    --------------------------------------------------------
  Initial guess space is incomplete.
  Adding 29 determinant(s).

  ==> Initial Guess <==

  Initial guess determinants:         79

  Classification of the initial guess solutions

  Number   2S+1   Selected
  ------------------------
    31       1       *
    39       3        
     9       5        
  ------------------------

    Spin    Root           Energy        <S^2>    Status
  -------------------------------------------------------
   singlet    0     -257.195853417608  -0.000000  added
  -------------------------------------------------------

  ==> Davidson-Liu Solver <==

    --------------------------------------------------------
    Print level                                      Default
    Energy convergence threshold                   1.000e-10
    Residual convergence threshold                 1.000e-08
    Schmidt orthogonality threshold                1.000e-12
    Schmidt discard threshold                      1.000e-07
    Size of the space                                    784
    Number of roots                                        1
    Maximum number of iterations                         100
    Collapse subspace size                                 2
    Maximum subspace size                                 10
    --------------------------------------------------------

  Davidson-Liu solver: adding 1 guess vectors
  Iteration     Average Energy            max(∆E)            max(Residual)  Vectors
  ---------------------------------------------------------------------------------
       0     -257.195853417608      257.195853417608        0.028027668725      1
       1     -257.196212516885        0.000359099277        0.000360129039      2
       2     -257.196212546781        0.000000029896        0.000001969153      3
       3     -257.196212546783        0.000000000002        0.000000006466      4
  ---------------------------------------------------------------------------------

  ==> Root No. 0 <==

    22222200      0.99991791

    Total Energy:    -257.196212546783, <S^2>: 0.000000
    Time for FCI:       0.103248931000

  ==> Energy Summary <==

    Multi.(2ms)  Irrep.  No.               Energy      <S^2>
    --------------------------------------------------------
       1  (  0)     A     0     -257.196212546783   0.000000
    --------------------------------------------------------

  ==> Natural Orbitals <==

        5A      1.999948      6A      1.999948      7A      1.999948  
        8A      1.999948      9A      1.999940     10A      1.999940  
       11A      0.000172     12A      0.000156  

 sydong:  unsymmetrize 2RDM


  ==> MCSCF Iterations <==

                      Energy CI                    Energy Orbital
           ------------------------------  ------------------------------
    Iter.        Total Energy       Delta        Total Energy       Delta  Orb. Grad.  Micro
    ----------------------------------------------------------------------------------------
 sydong:  unsymmetrize 2RDM

  Integrals are about to be updated.
  Timing for freezing core and virtual orbitals:              0.000 s.
  Integrals update took     0.535 s.
  L-BFGS Warning: Skip this vector due to negative rho
  Integrals are about to be updated.
  Timing for freezing core and virtual orbitals:              0.000 s.
  Integrals update took     0.458 s.
  L-BFGS Warning: Skip this vector due to negative rho
  Integrals are about to be updated.
  Timing for freezing core and virtual orbitals:              0.000 s.
  Integrals update took     0.484 s.
  L-BFGS Warning: Skip this vector due to negative rho
  Integrals are about to be updated.
  Timing for freezing core and virtual orbitals:              0.000 s.
  Integrals update took     0.450 s.
       1    -257.196212546783 -2.5720e+02   -257.198403150941 -2.5720e+02  5.9622e-05    4/N

  Davidson-Liu solver: restarting from previous calculation.
 sydong:  unsymmetrize 2RDM

  Integrals are about to be updated.
  Timing for freezing core and virtual orbitals:              0.000 s.
  Integrals update took     0.490 s.
  Integrals are about to be updated.
  Timing for freezing core and virtual orbitals:              0.000 s.
  Integrals update took     0.476 s.
  Integrals are about to be updated.
  Timing for freezing core and virtual orbitals:              0.000 s.
  Integrals update took     0.511 s.
  L-BFGS Warning: Skip this vector due to negative rho
  Integrals are about to be updated.
  Timing for freezing core and virtual orbitals:              0.000 s.
  Integrals update took     0.514 s.
       2    -257.199953003260 -3.7405e-03   -257.200094802150 -1.6917e-03  1.3360e-04    4/N

  Davidson-Liu solver: restarting from previous calculation.
 sydong:  unsymmetrize 2RDM

  Integrals are about to be updated.
  Timing for freezing core and virtual orbitals:              0.000 s.
  Integrals update took     0.518 s.
  L-BFGS Warning: Skip this vector due to negative rho
  Integrals are about to be updated.
  Timing for freezing core and virtual orbitals:              0.000 s.
  Integrals update took     0.499 s.
  L-BFGS Warning: Skip this vector due to negative rho
  Integrals are about to be updated.
  Timing for freezing core and virtual orbitals:              0.000 s.
  Integrals update took     0.491 s.
  L-BFGS Warning: Skip this vector due to negative rho
  Integrals are about to be updated.
  Timing for freezing core and virtual orbitals:              0.000 s.
  Integrals update took     0.485 s.
       3    -257.200111104413 -1.5810e-04   -257.200186368532 -9.1566e-05  3.6779e-05    4/N

  Davidson-Liu solver: restarting from previous calculation.
 sydong:  unsymmetrize 2RDM

  Integrals are about to be updated.
  Timing for freezing core and virtual orbitals:              0.000 s.
  Integrals update took     0.514 s.
  L-BFGS Warning: Skip this vector due to negative rho
  Integrals are about to be updated.
  Timing for freezing core and virtual orbitals:              0.000 s.
  Integrals update took     0.461 s.
  L-BFGS Warning: Skip this vector due to negative rho
  Integrals are about to be updated.
  Timing for freezing core and virtual orbitals:              0.000 s.
  Integrals update took     0.482 s.
  L-BFGS Warning: Skip this vector due to negative rho
  Integrals are about to be updated.
  Timing for freezing core and virtual orbitals:              0.000 s.
  Integrals update took     0.500 s.
       4    -257.200188501776 -7.7397e-05   -257.200961215215 -7.7485e-04  1.8346e-04    4/N

  Davidson-Liu solver: restarting from previous calculation.
 sydong:  unsymmetrize 2RDM

  Integrals are about to be updated.
  Timing for freezing core and virtual orbitals:              0.000 s.
  Integrals update took     0.462 s.
  L-BFGS Warning: Skip this vector due to negative rho
  Integrals are about to be updated.
  Timing for freezing core and virtual orbitals:              0.000 s.
  Integrals update took     0.478 s.
  Integrals are about to be updated.
  Timing for freezing core and virtual orbitals:              0.000 s.
  Integrals update took     0.484 s.
  Integrals are about to be updated.
  Timing for freezing core and virtual orbitals:              0.000 s.
  Integrals update took     0.500 s.
       5    -257.201097021738 -9.0852e-04   -257.206061071239 -5.0999e-03  4.6189e-04    4/N

  Davidson-Liu solver: restarting from previous calculation.
 sydong:  unsymmetrize 2RDM

  Integrals are about to be updated.
  Timing for freezing core and virtual orbitals:              0.000 s.
  Integrals update took     0.492 s.
  Integrals are about to be updated.
  Timing for freezing core and virtual orbitals:              0.000 s.
  Integrals update took     0.521 s.
  Integrals are about to be updated.
  Timing for freezing core and virtual orbitals:              0.000 s.
  Integrals update took     0.502 s.
  Integrals are about to be updated.
  Timing for freezing core and virtual orbitals:              0.000 s.
  Integrals update took     0.480 s.
       6    -257.209501950232 -8.4049e-03   -257.214664122936 -8.6031e-03  5.4404e-04    4/N

  Davidson-Liu solver: restarting from previous calculation.
 sydong:  unsymmetrize 2RDM

  Integrals are about to be updated.
  Timing for freezing core and virtual orbitals:              0.000 s.
  Integrals update took     0.477 s.
  Integrals are about to be updated.
  Timing for freezing core and virtual orbitals:              0.000 s.
  Integrals update took     0.460 s.
  Integrals are about to be updated.
  Timing for freezing core and virtual orbitals:              0.000 s.
  Integrals update took     0.472 s.
  Integrals are about to be updated.
  Timing for freezing core and virtual orbitals:              0.000 s.
  Integrals update took     0.459 s.
       7    -257.218229390951 -8.7274e-03   -257.218568172102 -3.9040e-03  4.2802e-04    4/N

  Davidson-Liu solver: restarting from previous calculation.
 sydong:  unsymmetrize 2RDM

  Integrals are about to be updated.
  Timing for freezing core and virtual orbitals:              0.000 s.
  Integrals update took     0.478 s.
  Integrals are about to be updated.
  Timing for freezing core and virtual orbitals:              0.000 s.
  Integrals update took     0.433 s.
  Integrals are about to be updated.
  Timing for freezing core and virtual orbitals:              0.000 s.
  Integrals update took     0.502 s.
  Integrals are about to be updated.
  Timing for freezing core and virtual orbitals:              0.000 s.
  Integrals update took     0.512 s.
       8    -257.218630275267 -4.0088e-04   -257.218649353805 -8.1182e-05  9.7187e-05    4/N

  Davidson-Liu solver: restarting from previous calculation.
 sydong:  unsymmetrize 2RDM

  Integrals are about to be updated.
  Timing for freezing core and virtual orbitals:              0.000 s.
  Integrals update took     0.509 s.
  Integrals are about to be updated.
  Timing for freezing core and virtual orbitals:              0.000 s.
  Integrals update took     0.490 s.
  Integrals are about to be updated.
  Timing for freezing core and virtual orbitals:              0.000 s.
  Integrals update took     0.507 s.
  Integrals are about to be updated.
  Timing for freezing core and virtual orbitals:              0.000 s.
  Integrals update took     0.452 s.
       9    -257.218657771267 -2.7496e-05   -257.218663441417 -1.4088e-05  5.4244e-05    4/N

  Davidson-Liu solver: restarting from previous calculation.
 sydong:  unsymmetrize 2RDM

  Integrals are about to be updated.
  Timing for freezing core and virtual orbitals:              0.000 s.
  Integrals update took     0.476 s.
  Integrals are about to be updated.
  Timing for freezing core and virtual orbitals:              0.000 s.
  Integrals update took     0.459 s.
  Integrals are about to be updated.
  Timing for freezing core and virtual orbitals:              0.000 s.
  Integrals update took     0.495 s.
  Integrals are about to be updated.
  Timing for freezing core and virtual orbitals:              0.000 s.
  Integrals update took     0.496 s.
      10    -257.218668193774 -1.0423e-05   -257.218672452355 -9.0109e-06  9.5972e-06    4/N

  Davidson-Liu solver: restarting from previous calculation.
 sydong:  unsymmetrize 2RDM

  Integrals are about to be updated.
  Timing for freezing core and virtual orbitals:              0.000 s.
  Integrals update took     0.516 s.
  Integrals are about to be updated.
  Timing for freezing core and virtual orbitals:              0.000 s.
  Integrals update took     0.495 s.
  Integrals are about to be updated.
  Timing for freezing core and virtual orbitals:              0.000 s.
  Integrals update took     0.454 s.
  Integrals are about to be updated.
  Timing for freezing core and virtual orbitals:              0.000 s.
  Integrals update took     0.488 s.
      11    -257.218676450787 -8.2570e-06   -257.218680144175 -7.6918e-06  7.2131e-06    4/N

  Davidson-Liu solver: restarting from previous calculation.
 sydong:  unsymmetrize 2RDM

  Integrals are about to be updated.
  Timing for freezing core and virtual orbitals:              0.000 s.
  Integrals update took     0.488 s.
  Integrals are about to be updated.
  Timing for freezing core and virtual orbitals:              0.000 s.
  Integrals update took     0.491 s.
  Integrals are about to be updated.
  Timing for freezing core and virtual orbitals:              0.000 s.
  Integrals update took     0.485 s.
  Integrals are about to be updated.
  Timing for freezing core and virtual orbitals:              0.000 s.
  Integrals update took     0.517 s.
      12    -257.218683704339 -7.2536e-06   -257.218686937649 -6.7935e-06  1.9009e-06    4/N

  Davidson-Liu solver: restarting from previous calculation.
 sydong:  unsymmetrize 2RDM

  Integrals are about to be updated.
  Timing for freezing core and virtual orbitals:              0.000 s.
  Integrals update took     0.333 s.
  Integrals are about to be updated.
  Timing for freezing core and virtual orbitals:              0.000 s.
  Integrals update took     0.461 s.
  Integrals are about to be updated.
  Timing for freezing core and virtual orbitals:              0.000 s.
  Integrals update took     0.522 s.
  Integrals are about to be updated.
  Timing for freezing core and virtual orbitals:              0.000 s.
  Integrals update took     0.522 s.
      13    -257.218690034146 -6.3298e-06   -257.218692884411 -5.9468e-06  2.9945e-06    4/N

  Davidson-Liu solver: restarting from previous calculation.
 sydong:  unsymmetrize 2RDM

  Integrals are about to be updated.
  Timing for freezing core and virtual orbitals:              0.000 s.
  Integrals update took     0.528 s.
  Integrals are about to be updated.
  Timing for freezing core and virtual orbitals:              0.000 s.
  Integrals update took     0.494 s.
  Integrals are about to be updated.
  Timing for freezing core and virtual orbitals:              0.000 s.
  Integrals update took     0.481 s.
  Integrals are about to be updated.
  Timing for freezing core and virtual orbitals:              0.000 s.
  Integrals update took     0.500 s.
      14    -257.218695634760 -5.6006e-06   -257.218698147656 -5.2632e-06  1.7097e-06    4/N

  Davidson-Liu solver: restarting from previous calculation.
 sydong:  unsymmetrize 2RDM

  Integrals are about to be updated.
  Timing for freezing core and virtual orbitals:              0.000 s.
  Integrals update took     0.425 s.
  Integrals are about to be updated.
  Timing for freezing core and virtual orbitals:              0.000 s.
  Integrals update took     0.425 s.
  Integrals are about to be updated.
  Timing for freezing core and virtual orbitals:              0.000 s.
  Integrals update took     0.543 s.
  Integrals are about to be updated.
  Timing for freezing core and virtual orbitals:              0.000 s.
  Integrals update took     0.500 s.
      15    -257.218700543308 -4.9085e-06   -257.218702770196 -4.6225e-06  3.0516e-06    4/N   S

  Davidson-Liu solver: restarting from previous calculation.
 sydong:  unsymmetrize 2RDM

  Integrals are about to be updated.
  Timing for freezing core and virtual orbitals:              0.000 s.
  Integrals update took     0.494 s.
  Integrals are about to be updated.
  Timing for freezing core and virtual orbitals:              0.000 s.
  Integrals update took     0.398 s.
  Integrals are about to be updated.
  Timing for freezing core and virtual orbitals:              0.000 s.
  Integrals update took     0.500 s.
  Integrals are about to be updated.
  Timing for freezing core and virtual orbitals:              0.000 s.
  Integrals update took     0.480 s.
      16    -257.218704899282 -4.3560e-06   -257.218706873260 -4.1031e-06  3.3328e-06    4/N   S

  Davidson-Liu solver: restarting from previous calculation.
 sydong:  unsymmetrize 2RDM

  Integrals are about to be updated.
  Timing for freezing core and virtual orbitals:              0.000 s.
  Integrals update took     0.488 s.
  Integrals are about to be updated.
  Timing for freezing core and virtual orbitals:              0.000 s.
  Integrals update took     0.482 s.
  Integrals are about to be updated.
  Timing for freezing core and virtual orbitals:              0.000 s.
  Integrals update took     0.532 s.
  Integrals are about to be updated.
  Timing for freezing core and virtual orbitals:              0.000 s.
  Integrals update took     0.518 s.
      17    -257.218708749585 -3.8503e-06   -257.218710505608 -3.6323e-06  3.6943e-06    4/N   S

  Davidson-Liu solver: restarting from previous calculation.
 sydong:  unsymmetrize 2RDM

  Integrals are about to be updated.
  Timing for freezing core and virtual orbitals:              0.000 s.
  Integrals update took     0.507 s.
  Integrals are about to be updated.
  Timing for freezing core and virtual orbitals:              0.000 s.
  Integrals update took     0.481 s.
  Integrals are about to be updated.
  Timing for freezing core and virtual orbitals:              0.000 s.
  Integrals update took     0.417 s.
  Integrals are about to be updated.
  Timing for freezing core and virtual orbitals:              0.000 s.
  Integrals update took     0.429 s.
      18    -257.218712183813 -3.4342e-06   -257.218713747210 -3.2416e-06  2.2126e-06    4/N   S/E
  Integrals are about to be updated.
  Timing for freezing core and virtual orbitals:              0.000 s.
  Integrals update took     0.454 s.

  Davidson-Liu solver: restarting from previous calculation.
 sydong:  unsymmetrize 2RDM

  Integrals are about to be updated.
  Timing for freezing core and virtual orbitals:              0.000 s.
  Integrals update took     0.495 s.
  Integrals are about to be updated.
  Timing for freezing core and virtual orbitals:              0.000 s.
  Integrals update took     0.471 s.
  Integrals are about to be updated.
  Timing for freezing core and virtual orbitals:              0.000 s.
  Integrals update took     0.492 s.
  Integrals are about to be updated.
  Timing for freezing core and virtual orbitals:              0.000 s.
  Integrals update took     0.486 s.
      19    -257.218733929127 -2.1745e-05   -257.218735133831 -2.1387e-05  6.3655e-06    4/N   S/E
  Integrals are about to be updated.
  Timing for freezing core and virtual orbitals:              0.000 s.
  Integrals update took     0.476 s.

  Davidson-Liu solver: restarting from previous calculation.
 sydong:  unsymmetrize 2RDM

  Integrals are about to be updated.
  Timing for freezing core and virtual orbitals:              0.000 s.
  Integrals update took     0.486 s.
  Integrals are about to be updated.
  Timing for freezing core and virtual orbitals:              0.000 s.
  Integrals update took     0.507 s.
  Integrals are about to be updated.
  Timing for freezing core and virtual orbitals:              0.000 s.
  Integrals update took     0.489 s.
  Integrals are about to be updated.
  Timing for freezing core and virtual orbitals:              0.000 s.
  Integrals update took     0.407 s.
      20    -257.218733939173 -1.0046e-08   -257.218735162882 -2.9051e-08  8.5612e-08    4/N   S/E
  Integrals are about to be updated.
  Timing for freezing core and virtual orbitals:              0.000 s.
  Integrals update took     0.488 s.

  Davidson-Liu solver: restarting from previous calculation.
 sydong:  unsymmetrize 2RDM

  Integrals are about to be updated.
  Timing for freezing core and virtual orbitals:              0.000 s.
  Integrals update took     0.504 s.
  Integrals are about to be updated.
  Timing for freezing core and virtual orbitals:              0.000 s.
  Integrals update took     0.496 s.
  Integrals are about to be updated.
  Timing for freezing core and virtual orbitals:              0.000 s.
  Integrals update took     0.488 s.
  Integrals are about to be updated.
  Timing for freezing core and virtual orbitals:              0.000 s.
  Integrals update took     0.333 s.
      21    -257.218734497743 -5.5857e-07   -257.218735591555 -4.2867e-07  9.0904e-07    4/N   S/E
  Integrals are about to be updated.
  Timing for freezing core and virtual orbitals:              0.000 s.
  Integrals update took     0.348 s.

  Davidson-Liu solver: restarting from previous calculation.
 sydong:  unsymmetrize 2RDM

  Integrals are about to be updated.
  Timing for freezing core and virtual orbitals:              0.000 s.
  Integrals update took     0.386 s.
  Integrals are about to be updated.
  Timing for freezing core and virtual orbitals:              0.000 s.
  Integrals update took     0.471 s.
  Integrals are about to be updated.
  Timing for freezing core and virtual orbitals:              0.000 s.
  Integrals update took     0.520 s.
  Integrals are about to be updated.
  Timing for freezing core and virtual orbitals:              0.000 s.
  Integrals update took     0.357 s.
      22    -257.218736053689 -1.5559e-06   -257.218737452454 -1.8609e-06  1.2395e-06    4/N   S/E
  Integrals are about to be updated.
  Timing for freezing core and virtual orbitals:              0.000 s.
  Integrals update took     0.456 s.

  Davidson-Liu solver: restarting from previous calculation.
 sydong:  unsymmetrize 2RDM

  Integrals are about to be updated.
  Timing for freezing core and virtual orbitals:              0.000 s.
  Integrals update took     0.519 s.
  Integrals are about to be updated.
  Timing for freezing core and virtual orbitals:              0.000 s.
  Integrals update took     0.511 s.
  Integrals are about to be updated.
  Timing for freezing core and virtual orbitals:              0.000 s.
  Integrals update took     0.454 s.
  Integrals are about to be updated.
  Timing for freezing core and virtual orbitals:              0.000 s.
  Integrals update took     0.506 s.
      23    -257.218737252938 -1.1992e-06   -257.218737818973 -3.6652e-07  4.0463e-06    4/N   S/E
  Integrals are about to be updated.
  Timing for freezing core and virtual orbitals:              0.000 s.
  Integrals update took     0.490 s.

  Davidson-Liu solver: restarting from previous calculation.
 sydong:  unsymmetrize 2RDM

  Integrals are about to be updated.
  Timing for freezing core and virtual orbitals:              0.000 s.
  Integrals update took     0.490 s.
  Integrals are about to be updated.
  Timing for freezing core and virtual orbitals:              0.000 s.
  Integrals update took     0.501 s.
  Integrals are about to be updated.
  Timing for freezing core and virtual orbitals:              0.000 s.
  Integrals update took     0.520 s.
  Integrals are about to be updated.
  Timing for freezing core and virtual orbitals:              0.000 s.
  Integrals update took     0.492 s.
      24    -257.218737483569 -2.3063e-07   -257.218737813064  5.9097e-09  6.2845e-06    4/N   S/E
  Integrals are about to be updated.
  Timing for freezing core and virtual orbitals:              0.000 s.
  Integrals update took     0.483 s.

  Davidson-Liu solver: restarting from previous calculation.
 sydong:  unsymmetrize 2RDM

  Integrals are about to be updated.
  Timing for freezing core and virtual orbitals:              0.000 s.
  Integrals update took     0.504 s.
  Integrals are about to be updated.
  Timing for freezing core and virtual orbitals:              0.000 s.
  Integrals update took     0.458 s.
  Integrals are about to be updated.
  Timing for freezing core and virtual orbitals:              0.000 s.
  Integrals update took     0.495 s.
  Integrals are about to be updated.
  Timing for freezing core and virtual orbitals:              0.000 s.
  Integrals update took     0.491 s.
      25    -257.218738099092 -6.1552e-07   -257.218738349722 -5.3666e-07  8.8438e-07    4/N   S/E
  Integrals are about to be updated.
  Timing for freezing core and virtual orbitals:              0.000 s.
  Integrals update took     0.520 s.

  Davidson-Liu solver: restarting from previous calculation.
 sydong:  unsymmetrize 2RDM

  Integrals are about to be updated.
  Timing for freezing core and virtual orbitals:              0.000 s.
  Integrals update took     0.491 s.
  Integrals are about to be updated.
  Timing for freezing core and virtual orbitals:              0.000 s.
  Integrals update took     0.493 s.
  Integrals are about to be updated.
  Timing for freezing core and virtual orbitals:              0.000 s.
  Integrals update took     0.520 s.
  Integrals are about to be updated.
  Timing for freezing core and virtual orbitals:              0.000 s.
  Integrals update took     0.476 s.
      26    -257.218738512696 -4.1360e-07   -257.218738732245 -3.8252e-07  2.7740e-07    4/N   S/E
  Integrals are about to be updated.
  Timing for freezing core and virtual orbitals:              0.000 s.
  Integrals update took     0.432 s.

  Davidson-Liu solver: restarting from previous calculation.
 sydong:  unsymmetrize 2RDM

  Integrals are about to be updated.
  Timing for freezing core and virtual orbitals:              0.000 s.
  Integrals update took     0.478 s.
  Integrals are about to be updated.
  Timing for freezing core and virtual orbitals:              0.000 s.
  Integrals update took     0.499 s.
  Integrals are about to be updated.
  Timing for freezing core and virtual orbitals:              0.000 s.
  Integrals update took     0.476 s.
  Integrals are about to be updated.
  Timing for freezing core and virtual orbitals:              0.000 s.
  Integrals update took     0.480 s.
      27    -257.218741066156 -2.5535e-06   -257.218741122478 -2.3902e-06  1.4670e-06    4/N   S/E
  Integrals are about to be updated.
  Timing for freezing core and virtual orbitals:              0.000 s.
  Integrals update took     0.471 s.

  Davidson-Liu solver: restarting from previous calculation.
 sydong:  unsymmetrize 2RDM

  Integrals are about to be updated.
  Timing for freezing core and virtual orbitals:              0.000 s.
  Integrals update took     0.504 s.
  Integrals are about to be updated.
  Timing for freezing core and virtual orbitals:              0.000 s.
  Integrals update took     0.427 s.
  Integrals are about to be updated.
  Timing for freezing core and virtual orbitals:              0.000 s.
  Integrals update took     0.466 s.
  Integrals are about to be updated.
  Timing for freezing core and virtual orbitals:              0.000 s.
  Integrals update took     0.491 s.
      28    -257.218741436279 -3.7012e-07   -257.218741461717 -3.3924e-07  5.4817e-07    4/N   S/E
  Integrals are about to be updated.
  Timing for freezing core and virtual orbitals:              0.000 s.
  Integrals update took     0.471 s.

  Davidson-Liu solver: restarting from previous calculation.
 sydong:  unsymmetrize 2RDM

  Integrals are about to be updated.
  Timing for freezing core and virtual orbitals:              0.000 s.
  Integrals update took     0.477 s.
  Integrals are about to be updated.
  Timing for freezing core and virtual orbitals:              0.000 s.
  Integrals update took     0.444 s.
  Integrals are about to be updated.
  Timing for freezing core and virtual orbitals:              0.000 s.
  Integrals update took     0.439 s.
  Integrals are about to be updated.
  Timing for freezing core and virtual orbitals:              0.000 s.
  Integrals update took     0.469 s.
      29    -257.218741763651 -3.2737e-07   -257.218741770743 -3.0903e-07  4.6683e-07    4/N   S/E
  Integrals are about to be updated.
  Timing for freezing core and virtual orbitals:              0.000 s.
  Integrals update took     0.413 s.

  Davidson-Liu solver: restarting from previous calculation.
 sydong:  unsymmetrize 2RDM

  Integrals are about to be updated.
  Timing for freezing core and virtual orbitals:              0.000 s.
  Integrals update took     0.517 s.
  Integrals are about to be updated.
  Timing for freezing core and virtual orbitals:              0.000 s.
  Integrals update took     0.484 s.
  Integrals are about to be updated.
  Timing for freezing core and virtual orbitals:              0.000 s.
  Integrals update took     0.508 s.
  Integrals are about to be updated.
  Timing for freezing core and virtual orbitals:              0.000 s.
  Integrals update took     0.511 s.
      30    -257.218741777499 -1.3847e-08   -257.218741778819 -8.0758e-09  3.8353e-07    4/N   S/E
  Integrals are about to be updated.
  Timing for freezing core and virtual orbitals:              0.000 s.
  Integrals update took     0.484 s.

  Davidson-Liu solver: restarting from previous calculation.
 sydong:  unsymmetrize 2RDM

  Integrals are about to be updated.
  Timing for freezing core and virtual orbitals:              0.000 s.
  Integrals update took     0.474 s.
  Integrals are about to be updated.
  Timing for freezing core and virtual orbitals:              0.000 s.
  Integrals update took     0.439 s.
  Integrals are about to be updated.
  Timing for freezing core and virtual orbitals:              0.000 s.
  Integrals update took     0.472 s.
      31    -257.218741790181 -1.2682e-08   -257.218741790514 -1.1695e-08  1.3871e-07    3/Y   S/E
  Integrals are about to be updated.
  Timing for freezing core and virtual orbitals:              0.000 s.
  Integrals update took     0.472 s.

  Davidson-Liu solver: restarting from previous calculation.
 sydong:  unsymmetrize 2RDM

  Integrals are about to be updated.
  Timing for freezing core and virtual orbitals:              0.000 s.
  Integrals update took     0.467 s.
  Integrals are about to be updated.
  Timing for freezing core and virtual orbitals:              0.000 s.
  Integrals update took     0.517 s.
      32    -257.218741790821 -6.4028e-10   -257.218741791099 -5.8458e-10  1.0256e-07    2/Y   S/E
  Integrals are about to be updated.
  Timing for freezing core and virtual orbitals:              0.000 s.
  Integrals update took     0.499 s.

  Davidson-Liu solver: restarting from previous calculation.
 sydong:  unsymmetrize 2RDM

  Integrals are about to be updated.
  Timing for freezing core and virtual orbitals:              0.000 s.
  Integrals update took     0.492 s.
      33    -257.218741795944 -5.1228e-09   -257.218741795962 -4.8634e-09  1.1627e-07    1/Y   S/E
  Integrals are about to be updated.
  Timing for freezing core and virtual orbitals:              0.000 s.
  Integrals update took     0.509 s.

  Davidson-Liu solver: restarting from previous calculation.
 sydong:  unsymmetrize 2RDM

  Integrals are about to be updated.
  Timing for freezing core and virtual orbitals:              0.000 s.
  Integrals update took     0.457 s.
  Integrals are about to be updated.
  Timing for freezing core and virtual orbitals:              0.000 s.
  Integrals update took     0.475 s.
      34    -257.218741795221  7.2311e-10   -257.218741795279  6.8349e-10  1.0192e-07    2/Y   R/S

  Davidson-Liu solver: restarting from previous calculation.
 sydong:  unsymmetrize 2RDM

  Integrals are about to be updated.
  Timing for freezing core and virtual orbitals:              0.000 s.
  Integrals update took     0.478 s.
      35    -257.218741795330 -1.0976e-10   -257.218741795369 -9.0722e-11  9.6266e-08    1/Y   S

  Davidson-Liu solver: restarting from previous calculation.
 sydong:  unsymmetrize 2RDM

  Integrals are about to be updated.
  Timing for freezing core and virtual orbitals:              0.000 s.
  Integrals update took     0.483 s.
      36    -257.218741795385 -5.4740e-11   -257.218741795421 -5.1728e-11  3.6188e-08    1/Y
    ----------------------------------------------------------------------------------------

  A miracle has come to pass: MCSCF iterations have converged!

  Performing final CI Calculation using converged orbitals

  ==> String Lists <==

    --------------------------------------------------------
    number of alpha electrons                              6
    number of beta electrons                               6
    number of alpha strings                               28
    number of beta strings                                28
    --------------------------------------------------------

  ==> FCI Solver <==

    --------------------------------------------------------
    Spin adapt                                         FALSE
    Number of determinants                               784
    Symmetry                                               0
    Multiplicity                                           1
    Number of roots                                        1
    Target root                                            0
    --------------------------------------------------------

  ==> Davidson-Liu Solver <==

    --------------------------------------------------------
    Print level                                      Default
    Energy convergence threshold                   1.000e-10
    Residual convergence threshold                 1.000e-08
    Schmidt orthogonality threshold                1.000e-12
    Schmidt discard threshold                      1.000e-07
    Size of the space                                    784
    Number of roots                                        1
    Maximum number of iterations                         100
    Collapse subspace size                                 2
    Maximum subspace size                                 10
    --------------------------------------------------------

  Davidson-Liu solver: restarting from previous calculation.
  Iteration     Average Energy            max(∆E)            max(Residual)  Vectors
  ---------------------------------------------------------------------------------
       0     -257.218741795421        0.000000000036        0.000007774327      1
       1     -257.218741795436        0.000000000014        0.000000431274      2
       2     -257.218741795436        0.000000000000        0.000000087170      3
       3     -257.218741795436        0.000000000000        0.000000006746      4
  ---------------------------------------------------------------------------------

  ==> Root No. 0 <==

    22222200      0.99738322
    22220220     -0.05164618
    20222202     -0.04802139

    Total Energy:    -257.218741795436, <S^2>: -0.000000
    Time for FCI:       0.091303812000

  ==> Energy Summary <==

    Multi.(2ms)  Irrep.  No.               Energy      <S^2>
    --------------------------------------------------------
       1  (  0)     A     0     -257.218741795436  -0.000000
    --------------------------------------------------------

  ==> Natural Orbitals <==

        5A      1.999947      6A      1.999944      7A      1.999944  
        8A      1.999940      9A      1.995344     10A      1.994550  
       11A      0.005562     12A      0.004768  


  Time to prepare integrals:        1.278 seconds
  Time to run job          :      211.583 seconds
  Total                    :      212.860 seconds
