
    -----------------------------------------------------------------------
          Psi4: An Open-Source Ab Initio Electronic Structure Package
                               Psi4 1.9.1 release

                         Git: Rev {HEAD} f53cdd7 


    D. G. A. Smith, L. A. Burns, A. C. Simmonett, R. M. Parrish,
    M. C. Schieber, R. Galvelis, P. Kraus, H. Kruse, R. Di Remigio,
    A. Alenaizan, A. M. James, S. Lehtola, J. P. Misiewicz, M. Scheurer,
    R. A. Shaw, J. B. Schriber, Y. Xie, Z. L. Glick, D. A. Sirianni,
    J. S. O'Brien, J. M. Waldrop, A. Kumar, E. G. Hohenstein,
    B. P. Pritchard, B. R. Brooks, H. F. Schaefer III, A. Yu. Sokolov,
    K. Patkowski, A. E. DePrince III, U. Bozkaya, R. A. King,
    F. A. Evangelista, J. M. Turney, T. D. Crawford, C. D. Sherrill,
    J. Chem. Phys. 152(18) 184108 (2020). https://doi.org/10.1063/5.0006002

                            Additional Code Authors
    E. T. Seidl, C. L. Janssen, E. F. Valeev, M. L. Leininger,
    J. F. Gonthier, R. M. Richard, H. R. McAlexander, M. Saitow, X. Wang,
    P. Verma, M. H. Lechner, A. Jiang, S. Behnle, A. G. Heide,
    M. F. Herbst, and D. L. Poole

             Previous Authors, Complete List of Code Contributors,
                       and Citations for Specific Modules
    https://github.com/psi4/psi4/blob/master/codemeta.json
    https://github.com/psi4/psi4/graphs/contributors
    http://psicode.org/psi4manual/master/introduction.html#citing-psifour

    -----------------------------------------------------------------------


    Psi4 started on: Sunday, 11 May 2025 02:25PM

    Process ID: 4000968
    Host:       hydrogen
    PSIDATADIR: /data/home/sydong/opt/psi4/share/psi4
    Memory:     500.0 MiB
    Threads:    1
    
  Memory set to 279.397 GiB by Python driver.
Molecule: geometry: Molecule is not complete, please use 'update_geometry'
                    once all variables are set.
Molecule: Setting geometry variable r_ch to 2.041300
Molecule: Setting geometry variable ahch to 134.220000

Scratch directory: /data/home/sydong/scratch/psi4/
   => Libint2 <=

    Primary   basis highest AM E, G, H:  6, 6, 3
    Auxiliary basis highest AM E, G, H:  7, 7, 4
    Onebody   basis highest AM E, G, H:  -, -, -
    Solid Harmonics ordering:            Gaussian

*** tstart() called on hydrogen
*** at Sun May 11 14:25:36 2025

   => Loading Basis Set <=

    Name: CC-PVQZ-F12
    Role: ORBITAL
    Keyword: BASIS
    atoms 1   entry C          line   276 file /data/home/sydong/opt/psi4/share/psi4/basis/cc-pvqz-f12.gbs 
    atoms 2-3 entry H          line    12 file /data/home/sydong/opt/psi4/share/psi4/basis/cc-pvqz-f12.gbs 


         ---------------------------------------------------------
                                   SCF
               by Justin Turney, Rob Parrish, Andy Simmonett
                          and Daniel G. A. Smith
                             ROHF Reference
                        1 Threads, 286102 MiB Core
         ---------------------------------------------------------

  ==> Geometry <==

    Molecular point group: c1
    Full point group: C2v

    Geometry (in Bohr), charge = 0, multiplicity = 3:

       Center              X                  Y                   Z               Mass       
    ------------   -----------------  -----------------  -----------------  -----------------
         C            0.000000000000     0.000000000000    -0.114187142306    12.000000000000
         H            0.000000000000    -1.880554374510     0.679803370554     1.007825032230
         H            0.000000000000     1.880554374510     0.679803370554     1.007825032230

  Running in c1 symmetry.

  Rotational constants: A =     55.33252  B =      8.44515  C =      7.32688 [cm^-1]
  Rotational constants: A = 1658827.28534  B = 253179.19035  C = 219654.35493 [MHz]
  Nuclear repulsion =    6.144485814575831

  Charge       = 0
  Multiplicity = 3
  Electrons    = 8
  Nalpha       = 5
  Nbeta        = 3

  ==> Algorithm <==

  SCF Algorithm Type is PK.
  DIIS enabled.
  MOM disabled.
  Fractional occupation disabled.
  Guess Type is SAD.
  Energy threshold   = 1.00e-10
  Density threshold  = 1.00e-08
  Integral threshold = 1.00e-12

  ==> Primary Basis <==

  Basis Set: CC-PVQZ-F12
    Blend: CC-PVQZ-F12
    Number of shells: 47
    Number of basis functions: 155
    Number of Cartesian functions: 190
    Spherical Harmonics?: true
    Max angular momentum: 4

  ==> Integral Setup <==

  Using in-core PK algorithm.
   Calculation information:
      Number of atoms:                   3
      Number of AO shells:              47
      Number of primitives:             73
      Number of atomic orbitals:       190
      Number of basis functions:       155

      Integral cutoff                 1.00e-12
      Number of threads:                 1

  Performing in-core PK
  Using 146180190 doubles for integral storage.
  We computed 635416 shell quartets total.
  Whereas there are 636756 unique shell quartets.

  ==> DiskJK: Disk-Based J/K Matrices <==

    J tasked:                  Yes
    K tasked:                  Yes
    wK tasked:                  No
    Memory [MiB]:           214576
    Schwarz Cutoff:          1E-12

    OpenMP threads:              1

  Minimum eigenvalue in the overlap matrix is 2.9915762938E-05.
  Reciprocal condition number of the overlap matrix is 3.8832879474E-06.
    Using symmetric orthogonalization.

  ==> Pre-Iterations <==

  SCF Guess: Superposition of Atomic Densities via on-the-fly atomic UHF (no occupation information).

   -------------------------
    Irrep   Nso     Nmo    
   -------------------------
     A        155     155 
   -------------------------
    Total     155     155
   -------------------------

  ==> Iterations <==

                        Total Energy        Delta E     RMS |[F,P]|

   @ROHF iter SAD:   -38.14291114650869   -3.81429e+01   0.00000e+00 
   @ROHF iter   1:   -38.92107786416255   -7.78167e-01   7.08032e-04 DIIS
   @ROHF iter   2:   -38.93345443668851   -1.23766e-02   1.96483e-04 DIIS
   @ROHF iter   3:   -38.93480593796696   -1.35150e-03   7.43756e-05 DIIS
   @ROHF iter   4:   -38.93502042932393   -2.14491e-04   2.53316e-05 DIIS
   @ROHF iter   5:   -38.93504605143045   -2.56221e-05   1.00573e-05 DIIS
   @ROHF iter   6:   -38.93505115831969   -5.10689e-06   2.84796e-06 DIIS
   @ROHF iter   7:   -38.93505153361249   -3.75293e-07   4.82463e-07 DIIS
   @ROHF iter   8:   -38.93505154352201   -9.90951e-09   1.81862e-07 DIIS
   @ROHF iter   9:   -38.93505154516559   -1.64358e-09   5.19617e-08 DIIS
   @ROHF iter  10:   -38.93505154527726   -1.11676e-10   6.96691e-09 DIIS
   @ROHF iter  11:   -38.93505154527885   -1.58451e-12   1.40242e-09 DIIS
  Energy and wave function converged.


  ==> Post-Iterations <==

    Orbital Energies [Eh]
    ---------------------

    Doubly Occupied:                                                      

       1A    -11.245434     2A     -0.851892     3A     -0.603589  

    Singly Occupied:                                                      

       4A     -0.148524     5A     -0.108734  

    Virtual:                                                              

       6A      0.059707     7A      0.060159     8A      0.070042  
       9A      0.070551    10A      0.174670    11A      0.187467  
      12A      0.264952    13A      0.290390    14A      0.316941  
      15A      0.333202    16A      0.350375    17A      0.396859  
      18A      0.446851    19A      0.448727    20A      0.449625  
      21A      0.494305    22A      0.616729    23A      0.645999  
      24A      0.668729    25A      0.743008    26A      0.751941  
      27A      0.759727    28A      0.826332    29A      0.958951  
      30A      0.967052    31A      0.970017    32A      0.975485  
      33A      0.976550    34A      0.977650    35A      1.028554  
      36A      1.096713    37A      1.102528    38A      1.140345  
      39A      1.278671    40A      1.320343    41A      1.391328  
      42A      1.408786    43A      1.422545    44A      1.480713  
      45A      1.500674    46A      1.519448    47A      1.612362  
      48A      1.635966    49A      1.651775    50A      1.651778  
      51A      1.671593    52A      1.719541    53A      1.809036  
      54A      1.840345    55A      1.916516    56A      2.085297  
      57A      2.096433    58A      2.211571    59A      2.251939  
      60A      2.257988    61A      2.263363    62A      2.377138  
      63A      2.404961    64A      2.476574    65A      2.483610  
      66A      2.552057    67A      2.574422    68A      2.602486  
      69A      2.628453    70A      2.652541    71A      2.659823  
      72A      2.669071    73A      2.690590    74A      2.785721  
      75A      2.822698    76A      2.846178    77A      2.940163  
      78A      2.993819    79A      3.049707    80A      3.050831  
      81A      3.063455    82A      3.110377    83A      3.110720  
      84A      3.136008    85A      3.198123    86A      3.227468  
      87A      3.325564    88A      3.331363    89A      3.370772  
      90A      3.465802    91A      3.469211    92A      3.516414  
      93A      3.781625    94A      3.845060    95A      4.090851  
      96A      4.107877    97A      4.327898    98A      4.763127  
      99A      4.858647   100A      4.866576   101A      4.885011  
     102A      4.941242   103A      5.102115   104A      5.144424  
     105A      5.195998   106A      5.491274   107A      5.499472  
     108A      5.617549   109A      5.716546   110A      5.753489  
     111A      5.832902   112A      6.064064   113A      6.172031  
     114A      6.211008   115A      6.376133   116A      6.626828  
     117A      6.716035   118A      6.824434   119A      6.911388  
     120A      6.915089   121A      7.191235   122A      7.232879  
     123A      7.252006   124A      7.337314   125A      7.361341  
     126A      7.447066   127A      7.502097   128A      7.503396  
     129A      7.683046   130A      7.737280   131A      7.923228  
     132A      8.173904   133A      8.179887   134A      8.338707  
     135A      8.832125   136A      9.042475   137A      9.464013  
     138A      9.488464   139A     12.572504   140A     12.668145  
     141A     12.675484   142A     12.767660   143A     12.982448  
     144A     13.253900   145A     14.310074   146A     14.347254  
     147A     14.737759   148A     14.884563   149A     14.967822  
     150A     16.237680   151A     16.353522   152A     24.773145  
     153A     25.138243   154A     25.920523   155A     38.467056  

    Final Occupation by Irrep:
              A 
    DOCC [     3 ]
    SOCC [     2 ]
    NA   [     5 ]
    NB   [     3 ]

  @ROHF Final Energy:   -38.93505154527885

   => Energetics <=

    Nuclear Repulsion Energy =              6.1444858145758312
    One-Electron Energy =                 -63.8883685696391836
    Two-Electron Energy =                  18.8088312097845076
    Total Energy =                        -38.9350515452788457

Computation Completed


Properties will be evaluated at   0.000000,   0.000000,   0.000000 [a0]

Properties computed using the SCF density matrix


 Multipole Moments:

 ------------------------------------------------------------------------------------
     Multipole            Electronic (a.u.)      Nuclear  (a.u.)        Total (a.u.)
 ------------------------------------------------------------------------------------

 L = 1.  Multiply by 2.5417464519 to convert [e a0] to [Debye]
 Dipole X            :         -0.0000000            0.0000000           -0.0000000
 Dipole Y            :          0.0000000            0.0000000            0.0000000
 Dipole Z            :         -0.4485708            0.6744839            0.2259131
 Magnitude           :                                                    0.2259131

 ------------------------------------------------------------------------------------

*** tstop() called on hydrogen at Sun May 11 14:25:44 2025
Module time:
	user time   =       6.82 seconds =       0.11 minutes
	system time =       1.90 seconds =       0.03 minutes
	total time  =          8 seconds =       0.13 minutes
Total time:
	user time   =       6.82 seconds =       0.11 minutes
	system time =       1.90 seconds =       0.03 minutes
	total time  =          8 seconds =       0.13 minutes

Scratch directory: /data/home/sydong/scratch/psi4/

  Forte
  ----------------------------------------------------------------------------
  A suite of quantum chemistry methods for strongly correlated electrons

    git branch: ct_forte - git commit: 41562031

  Developed by:
    Francesco A. Evangelista, Chenyang Li, Kevin P. Hannon,
    Jeffrey B. Schriber, Tianyuan Zhang, Chenxi Cai,
    Nan He, Nicholas Stair, Shuhe Wang, Renke Huang
  ----------------------------------------------------------------------------

  Forte will use options passed as a dictionary. Option read from psi4 will be ignored


  Preparing forte objects from a Psi4 Wavefunction object Using basis set CC-PVQZ-F12 from Psi4 global options.   => Loading Basis Set <=

    Name: CC-PVQZ-F12
    Role: ORBITAL
    Keyword: BASIS
    atoms 1   entry C          line   276 file /data/home/sydong/opt/psi4/share/psi4/basis/cc-pvqz-f12.gbs 
    atoms 2-3 entry H          line    12 file /data/home/sydong/opt/psi4/share/psi4/basis/cc-pvqz-f12.gbs 



  ==> MO Space Information <==

  -------------------------------
                        A   Sum
  -------------------------------
    FROZEN_DOCC         1     1
    RESTRICTED_DOCC     0     0
    GAS1                6     6
    GAS2                0     0
    GAS3                0     0
    GAS4                0     0
    GAS5                0     0
    GAS6                0     0
    RESTRICTED_UOCC   148   148
    FROZEN_UOCC         0     0
    Total             155   155
  -------------------------------   => Loading Basis Set <=

    Name: STO-3G
    Role: ORBITAL
    Keyword: MINAO_BASIS
    atoms 1   entry C          line    61 file /data/home/sydong/opt/psi4/share/psi4/basis/sto-3g.gbs 
    atoms 2-3 entry H          line    19 file /data/home/sydong/opt/psi4/share/psi4/basis/sto-3g.gbs 


  State Triplet (Ms = 0) A GAS min: 0 0 0 0 0 0 ; GAS max: 12 0 0 0 0 0 ; weights:
      1.000000000000
  Forte will use psi4 integrals

  ==> Primary Basis Set Summary <==

  Basis Set: CC-PVQZ-F12
    Blend: CC-PVQZ-F12
    Number of shells: 47
    Number of basis functions: 155
    Number of Cartesian functions: 190
    Spherical Harmonics?: true
    Max angular momentum: 4


  JK created using conventional PK integrals
  Using in-core PK algorithm.
   Calculation information:
      Number of atoms:                   3
      Number of AO shells:              47
      Number of primitives:             73
      Number of atomic orbitals:       190
      Number of basis functions:       155

      Integral cutoff                 1.00e-12
      Number of threads:                 1

  Performing in-core PK
  Using 146180190 doubles for integral storage.
  We computed 635416 shell quartets total.
  Whereas there are 636756 unique shell quartets.

  ==> DiskJK: Disk-Based J/K Matrices <==

    J tasked:                  Yes
    K tasked:                  Yes
    wK tasked:                  No
    Memory [MiB]:           228881
    Schwarz Cutoff:          1E-12

    OpenMP threads:              1



  ==> Integral Transformation <==

  Number of molecular orbitals:                        155
  Number of correlated molecular orbitals:             154
  Number of frozen occupied orbitals:                    1
  Number of frozen unoccupied orbitals:                  0
  Two-electron integral type:                 Conventional


  Computing Conventional Integrals	Presorting SO-basis two-electron integrals.
	Sorting File: SO Ints (nn|nn) nbuckets = 1
	Constructing frozen core operators
	Starting first half-transformation.
	Sorting half-transformed integrals.
	First half integral transformation complete.
	Starting second half-transformation.
	Two-electron integral transformation complete.

  Integral transformation done. 18.84791674 s
  Reading the two-electron integrals from disk
  Size of two-electron integrals:  12.901439 GB
  Timing for conventional integral transformation:           74.976 s.
  Frozen-core energy         -34.319279711781483 a.u.
  Timing for frozen one-body operator:                        0.250 s.
  Resorting integrals after freezing core.
  Timing for freezing core and virtual orbitals:             37.384 s.
  Timing for computing conventional integrals:              112.360 s.

          -----------------------------------------------------------
                  Multi-Configurational Self Consistent Field
                Two-Step Approximate Second-Order AO Algorithm
            written by Chenyang Li, Kevin P. Hannon, and Shuhe Wang
          -----------------------------------------------------------


  ==> MCSCF Calculation Information <==

    --------------------------------------------------------
    Print level                                      Default
    Integral type                               CONVENTIONAL
    CI solver type                                       FCI
    Final orbital type                             CANONICAL
    Derivative type                                     NONE
    Optimize orbitals                                   TRUE
    Include internal rotations                         FALSE
    Debug printing                                     FALSE
    Energy convergence                             1.000e-10
    Gradient convergence                           1.000e-06
    Max value for rotation                         2.000e-01
    Max number of macro iter.                            100
    Max number of micro iter. for orbitals                 6
    Max number of micro iter. for CI                      12
    DIIS start                                            15
    Min DIIS vectors                                       3
    Max DIIS vectors                                       8
    Frequency of DIIS extrapolation                        1
    --------------------------------------------------------

  ==> Independent Orbital Rotations <==

    ORBITAL SPACES                         A
    ----------------------------------------
             ACTIVE / RESTRICTED_DOCC      0
    RESTRICTED_UOCC /          ACTIVE    888
    RESTRICTED_UOCC / RESTRICTED_DOCC      0
    ----------------------------------------

  ==> String Lists <==

    --------------------------------------------------------
    number of alpha electrons                              3
    number of beta electrons                               3
    number of alpha strings                               20
    number of beta strings                                20
    --------------------------------------------------------

  ==> FCI Solver <==

    --------------------------------------------------------
    Spin adapt                                         FALSE
    Number of determinants                               400
    Symmetry                                               0
    Multiplicity                                           3
    Number of roots                                        1
    Target root                                            0
    --------------------------------------------------------
  Initial guess space is incomplete.
  Adding 3 determinant(s).

  ==> Initial Guess <==

  Initial guess determinants:         53

  Classification of the initial guess solutions

  Number   2S+1   Selected
  ------------------------
    24       1        
    25       3       *
     4       5        
  ------------------------

    Spin    Root           Energy        <S^2>    Status
  -------------------------------------------------------
   triplet    0      -73.254366041677  +2.000000  added
  -------------------------------------------------------

  ==> Davidson-Liu Solver <==

    --------------------------------------------------------
    Print level                                      Default
    Energy convergence threshold                   1.000e-10
    Residual convergence threshold                 1.000e-08
    Schmidt orthogonality threshold                1.000e-12
    Schmidt discard threshold                      1.000e-07
    Size of the space                                    400
    Number of roots                                        1
    Maximum number of iterations                         100
    Collapse subspace size                                 2
    Maximum subspace size                                 10
    --------------------------------------------------------

  Davidson-Liu solver: adding 1 guess vectors
  Iteration     Average Energy            max(∆E)            max(Residual)  Vectors
  ---------------------------------------------------------------------------------
       0      -38.935086329895       38.935086329895        0.009131293042      1
       1      -38.935138107254        0.000051777359        0.001054673539      2
       2      -38.935139124409        0.000001017155        0.000121905030      3
       3      -38.935139135879        0.000000011470        0.000013257935      4
       4      -38.935139136076        0.000000000197        0.000002586089      5
       5      -38.935139136082        0.000000000006        0.000000405893      6
       6      -38.935139136082        0.000000000000        0.000000045353      7
       7      -38.935139136082        0.000000000000        0.000000005139      8
  ---------------------------------------------------------------------------------

  ==> Root No. 0 <==

    22ba00      0.70707472
    22ab00     -0.70707472

    Total Energy:     -38.935139136082, <S^2>: 2.000000
    Time for FCI:       0.018984015000

  ==> Energy Summary <==

    Multi.(2ms)  Irrep.  No.               Energy      <S^2>
    --------------------------------------------------------
       3  (  0)     A     0      -38.935139136082   2.000000
    --------------------------------------------------------
  Computing RDMs for dipole moments ... Done

  ==> Summary of Dipole Moments [e a0] (Nuclear + Electronic) <==

       State           DM_X           DM_Y           DM_Z           |DM|
    --------------------------------------------------------------------
          0A    -0.00000000    -0.00000000     0.22570298     0.22570298
    --------------------------------------------------------------------
     Nuclear     0.00000000     0.00000000     0.67448389     0.67448389
    --------------------------------------------------------------------

  ==> Natural Orbitals <==

        2A      1.999942      3A      1.999938      4A      1.000002  
        5A      1.000000      6A      0.000062      7A      0.000055  

 sydong:  unsymmetrize 2RDM


  ==> MCSCF Iterations <==

                      Energy CI                    Energy Orbital
           ------------------------------  ------------------------------
    Iter.        Total Energy       Delta        Total Energy       Delta  Orb. Grad.  Micro
    ----------------------------------------------------------------------------------------
 sydong:  unsymmetrize 2RDM

  L-BFGS Warning: Skip this vector due to negative rho
  L-BFGS Warning: Skip this vector due to negative rho
  L-BFGS Warning: Skip this vector due to negative rho
       1     -38.935139136082 -3.8935e+01    -38.938251037532 -3.8938e+01  1.5059e-04    6/N

  Davidson-Liu solver: restarting from previous calculation.
 sydong:  unsymmetrize 2RDM

       2     -38.958904347275 -2.3765e-02    -38.967839614585 -2.9589e-02  1.3726e-04    6/N

  Davidson-Liu solver: restarting from previous calculation.
 sydong:  unsymmetrize 2RDM

       3     -38.973052328972 -1.4148e-02    -38.973858313091 -6.0187e-03  1.3117e-05    6/N

  Davidson-Liu solver: restarting from previous calculation.
 sydong:  unsymmetrize 2RDM

       4     -38.974058565252 -1.0062e-03    -38.974098430064 -2.4012e-04  7.9911e-06    6/N

  Davidson-Liu solver: restarting from previous calculation.
 sydong:  unsymmetrize 2RDM

       5     -38.974107875382 -4.9310e-05    -38.974110178335 -1.1748e-05  1.7048e-06    6/N

  Davidson-Liu solver: restarting from previous calculation.
 sydong:  unsymmetrize 2RDM

       6     -38.974110789981 -2.9146e-06    -38.974110962493 -7.8416e-07  3.0272e-07    6/N

  Davidson-Liu solver: restarting from previous calculation.
 sydong:  unsymmetrize 2RDM

       7     -38.974111014020 -2.2404e-07    -38.974111030219 -6.7726e-08  7.6475e-08    5/Y

  Davidson-Liu solver: restarting from previous calculation.
 sydong:  unsymmetrize 2RDM

       8     -38.974111035505 -2.1485e-08    -38.974111037274 -7.0546e-09  2.6483e-08    4/Y

  Davidson-Liu solver: restarting from previous calculation.
 sydong:  unsymmetrize 2RDM

       9     -38.974111037890 -2.3849e-09    -38.974111038091 -8.1731e-10  8.5889e-08    2/Y

  Davidson-Liu solver: restarting from previous calculation.
 sydong:  unsymmetrize 2RDM

      10     -38.974111038157 -2.6718e-10    -38.974111038193 -1.0153e-10  5.2315e-08    2/Y

  Davidson-Liu solver: restarting from previous calculation.
 sydong:  unsymmetrize 2RDM

      11     -38.974111038204 -4.7287e-11    -38.974111038204 -1.1582e-11  6.5855e-08    0/Y
    ----------------------------------------------------------------------------------------

  A miracle has come to pass: MCSCF iterations have converged!

  Performing final CI Calculation using converged orbitals

  ==> String Lists <==

    --------------------------------------------------------
    number of alpha electrons                              3
    number of beta electrons                               3
    number of alpha strings                               20
    number of beta strings                                20
    --------------------------------------------------------

  ==> FCI Solver <==

    --------------------------------------------------------
    Spin adapt                                         FALSE
    Number of determinants                               400
    Symmetry                                               0
    Multiplicity                                           3
    Number of roots                                        1
    Target root                                            0
    --------------------------------------------------------

  ==> Davidson-Liu Solver <==

    --------------------------------------------------------
    Print level                                      Default
    Energy convergence threshold                   1.000e-10
    Residual convergence threshold                 1.000e-08
    Schmidt orthogonality threshold                1.000e-12
    Schmidt discard threshold                      1.000e-07
    Size of the space                                    400
    Number of roots                                        1
    Maximum number of iterations                         100
    Collapse subspace size                                 2
    Maximum subspace size                                 10
    --------------------------------------------------------

  Davidson-Liu solver: restarting from previous calculation.
  Iteration     Average Energy            max(∆E)            max(Residual)  Vectors
  ---------------------------------------------------------------------------------
       0      -38.974111038204        0.000000000000        0.000000008459      1
  ---------------------------------------------------------------------------------

  ==> Root No. 0 <==

    22ba00      0.69774252
    22ab00     -0.69774252
    b2aa0b     -0.04995498
    a2bb0a      0.04995498
    20ba20     -0.04108756
    20ab20      0.04108756
    20ba02     -0.03803276
    20ab02      0.03803276
    02ba02     -0.03674342
    02ab02      0.03674342
    abbaab     -0.03106749
    baabba      0.03106749
    bababa     -0.03020225
    ababab      0.03020225
    2abba0      0.02968739
    2baab0     -0.02968739
    abbaba     -0.02292307
    baabab      0.02292307
    babaab     -0.02188814
    ababba      0.02188814
    b20a02     -0.01965373
    a20b02      0.01965373
    02ba20     -0.01644642
    02ab20      0.01644642
    ba2ab0      0.01588428
    ab2ba0     -0.01588428
    a2ba0b      0.01580500
    b2ab0a     -0.01580500
    2b0aba     -0.01577148
    2a0bab      0.01577148
    202a0b      0.01449955
    202b0a     -0.01449955
    220a0b     -0.01210957
    220b0a      0.01210957
    2b0aab     -0.01049282
    2a0bba      0.01049282

    Total Energy:     -38.974111038204, <S^2>: 2.000000
    Time for FCI:       0.006613597000

  ==> Energy Summary <==

    Multi.(2ms)  Irrep.  No.               Energy      <S^2>
    --------------------------------------------------------
       3  (  0)     A     0      -38.974111038204   2.000000
    --------------------------------------------------------
  Computing RDMs for dipole moments ... Done

  ==> Summary of Dipole Moments [e a0] (Nuclear + Electronic) <==

       State           DM_X           DM_Y           DM_Z           |DM|
    --------------------------------------------------------------------
          0A    -0.00000000     0.00000000     0.17460322     0.17460322
    --------------------------------------------------------------------
     Nuclear     0.00000000     0.00000000     0.67448389     0.67448389
    --------------------------------------------------------------------

  ==> Natural Orbitals <==

        2A      1.979920      3A      1.976837      4A      1.000000  
        5A      0.999760      6A      0.025883      7A      0.017600  

  Canonicalizing final MCSCF orbitals

  ==> Semicanonicalize Orbitals <==

    MIX INACTIVE ORBITALS         FALSE
    MIX GAS ACTIVE ORBITALS       FALSE
    FROZEN_DOCC                   CANONICAL
    FROZEN_UOCC                   CANONICAL
    GAS1                          CANONICAL
    RESTRICTED_DOCC               CANONICAL
    RESTRICTED_UOCC               CANONICAL

    Off-Diag. Elements       Max           2-Norm
    ------------------------------------------------
    FROZEN_DOCC          0.0000000000   0.0000000000
    GAS1                 0.0475359999   0.0678116290
    RESTRICTED_UOCC      0.1498197695   1.3480418713
    ------------------------------------------------

    Canonicalization test failed

  Timing for orbital canonicalization:                        0.003 s.

  !!! WARNING: Final Active Orbitals Maybe Different from the Original !!!

    Based on projections of maximum overlap method:
           5A -> 9A        RESTRICTED_UOCC
           6A -> 10A       RESTRICTED_UOCC
  Orbital rotations on spin-free RDMs ...
    Transformed 1 RDMs.
    Transformed 2 RDMs.
  Integrals are about to be updated.
  Computing Conventional Integrals	Presorting SO-basis two-electron integrals.
	Sorting File: SO Ints (nn|nn) nbuckets = 1
	Constructing frozen core operators
	Starting first half-transformation.
	Sorting half-transformed integrals.
	First half integral transformation complete.
	Starting second half-transformation.
	Two-electron integral transformation complete.

  Integral transformation done. 18.59942639 s
  Reading the two-electron integrals from disk
  Size of two-electron integrals:  12.901439 GB
  Timing for conventional integral transformation:           76.202 s.
  Frozen-core energy         -34.319279711781483 a.u.
  Timing for frozen one-body operator:                        0.251 s.
  Resorting integrals after freezing core.
  Timing for freezing core and virtual orbitals:             37.302 s.
  Integrals update took   113.505 s.

  The integrals are not consistent with the orbitals. Re-transforming them.


  ==> String Lists <==

    --------------------------------------------------------
    number of alpha electrons                              3
    number of beta electrons                               3
    number of alpha strings                               20
    number of beta strings                                20
    --------------------------------------------------------

  ==> FCI Solver <==

    --------------------------------------------------------
    Spin adapt                                         FALSE
    Number of determinants                               400
    Symmetry                                               0
    Multiplicity                                           3
    Number of roots                                        1
    Target root                                            0
    --------------------------------------------------------
  Initial guess space is incomplete.
  Adding 1 determinant(s).

  ==> Initial Guess <==

  Initial guess determinants:         51

  Classification of the initial guess solutions

  Number   2S+1   Selected
  ------------------------
    24       1        
    24       3       *
     3       5        
  ------------------------

    Spin    Root           Energy        <S^2>    Status
  -------------------------------------------------------
   triplet    0      -73.259758747631  +2.000000  added
  -------------------------------------------------------

  ==> Davidson-Liu Solver <==

    --------------------------------------------------------
    Print level                                      Default
    Energy convergence threshold                   1.000e-10
    Residual convergence threshold                 1.000e-08
    Schmidt orthogonality threshold                1.000e-12
    Schmidt discard threshold                      1.000e-07
    Size of the space                                    400
    Number of roots                                        1
    Maximum number of iterations                         100
    Collapse subspace size                                 2
    Maximum subspace size                                 10
    --------------------------------------------------------

  Davidson-Liu solver: adding 1 guess vectors
  Iteration     Average Energy            max(∆E)            max(Residual)  Vectors
  ---------------------------------------------------------------------------------
       0      -38.940479035849       38.940479035849        0.250674179116      1
       1      -38.973331783496        0.032852747647        0.042971860635      2
       2      -38.974094631434        0.000762847938        0.005452228699      3
       3      -38.974110156828        0.000015525394        0.001299794812      4
       4      -38.974111005219        0.000000848392        0.000243403411      5
       5      -38.974111036878        0.000000031659        0.000047799764      6
       6      -38.974111038156        0.000000001278        0.000009651197      7
       7      -38.974111038204        0.000000000047        0.000001203733      8
       8      -38.974111038204        0.000000000001        0.000000201884      9
       9      -38.974111038204        0.000000000000        0.000000029032     10
      10      -38.974111038204        0.000000000000        0.000000006143      3
  ---------------------------------------------------------------------------------

  ==> Root No. 0 <==

    22ba00     -0.69610620
    22ab00      0.69610620
    b2aa0b      0.04946059
    a2bb0a     -0.04946059
    b22a00      0.04884002
    a22b00     -0.04884002
    20ab20     -0.04088018
    20ba20      0.04088018
    20ab02     -0.03817764
    20ba02      0.03817764
    02ab02     -0.03534494
    02ba02      0.03534494
    abbaab      0.03031798
    baabba     -0.03031798
    ababab     -0.03028082
    bababa      0.03028082
    2baab0      0.02904483
    2abba0     -0.02904483
    babaab      0.02188814
    ababba     -0.02188814
    a20b02     -0.02184669
    b20a02      0.02184669
    abbaba      0.02172819
    baabab     -0.02172819
    2a0bab     -0.01699109
    2b0aba      0.01699109
    02ba20      0.01643119
    02ab20     -0.01643119
    ba2ab0     -0.01549882
    ab2ba0      0.01549882
    a2ba0b     -0.01473401
    b2ab0a      0.01473401
    202a0b     -0.01429313
    202b0a      0.01429313
    2b0aab      0.01243259
    2a0bba     -0.01243259
    ab2ab0     -0.01184873
    ba2ba0      0.01184873
    220a0b      0.01069819
    220b0a     -0.01069819
    b2ba0a      0.01013852
    a2ab0b     -0.01013852

    Total Energy:     -38.974111038204, <S^2>: 2.000000
    Time for FCI:       0.023908050000

  ==> Energy Summary <==

    Multi.(2ms)  Irrep.  No.               Energy      <S^2>
    --------------------------------------------------------
       3  (  0)     A     0      -38.974111038204   2.000000
    --------------------------------------------------------
  Computing RDMs for dipole moments ... Done

  ==> Summary of Dipole Moments [e a0] (Nuclear + Electronic) <==

       State           DM_X           DM_Y           DM_Z           |DM|
    --------------------------------------------------------------------
          0A    -0.00000000    -0.00000000     0.21991549     0.21991549
    --------------------------------------------------------------------
     Nuclear     0.00000000     0.00000000     0.67448389     0.67448389
    --------------------------------------------------------------------

  ==> Natural Orbitals <==

        2A      1.979920      3A      1.976837      4A      1.000000  
        5A      0.999760      6A      0.025883      7A      0.017600  


  ==> Semicanonicalize Orbitals <==

    MIX INACTIVE ORBITALS         FALSE
    MIX GAS ACTIVE ORBITALS       FALSE
    FROZEN_DOCC                   CANONICAL
    FROZEN_UOCC                   CANONICAL
    GAS1                          CANONICAL
    RESTRICTED_DOCC               CANONICAL
    RESTRICTED_UOCC               CANONICAL

    Off-Diag. Elements       Max           2-Norm
    ------------------------------------------------
    FROZEN_DOCC          0.0000000000   0.0000000000
    GAS1                 0.0000000012   0.0000000018
    RESTRICTED_UOCC      0.0000000005   0.0000000038
    ------------------------------------------------

    Canonicalization test passed

  Orbitals are already semicanonicalized.
  Timing for orbital canonicalization:                        0.859 s.

  ==> Multireference Driven Similarity Renormalization Group <==

    Computing Fock matrix and cleaning JK ........... Done
    Reading DSRG options ............................ Done
    Setting ambit MO space .......................... Done
    Preparing tensors for density cumulants ......... Done
    Filling Fock matrix from ForteIntegrals ......... Done

              ----------------------------------------------------
                    MR-DSRG Second-Order Perturbation Theory
                Chenyang Li, Kevin Hannon, Francesco Evangelista
              ----------------------------------------------------

    References:
      u-DSRG-MRPT2:    J. Chem. Theory Comput. 2015, 11, 2097.
      (pr-)DSRG-MRPT2: J. Chem. Phys. 2017, 146, 124132.

  ==> Calculation Information <==

    --------------------------------------------------------
    int_type                                    CONVENTIONAL
    source operator                                 STANDARD
    reference relaxation                                NONE
    state_type                                STATE-SPECIFIC
    form Hbar3                                         FALSE
    flow parameter                                 5.000e-01
    taylor expansion threshold                     1.000e-03
    intruder_tamp                                  1.000e-01
    ntamp                                                 15
    --------------------------------------------------------
  =>** Before self.dsrg_solver.compute_energy() **<=


  ==> Checking Semicanonical Orbitals <==

    Block             Fa Max         Fa Mean           Fb Max         Fb Mean
    -------------------------------------------------------------------------
    CORE        0.0000000000    0.0000000000     0.0000000000    0.0000000000
    VIRTUAL     0.0000000005    0.0000000000     0.0000000005    0.0000000000
    GAS1        0.0000000012    0.0000000001     0.0000000012    0.0000000001
    -------------------------------------------------------------------------
    Orbitals are semi-canonicalized.

  ==> Computing DSRG-MRPT2 ... <==

    Computing T2 amplitudes                  ...  Done. Timing        0.148287 s
    Computing T1 amplitudes                  ...  Done. Timing        0.001846 s
    Renormalizing two-electron integrals     ...  Done. Timing        0.127194 s
    Renormalizing Fock matrix elements       ...  Done. Timing        0.001816 s
    Computing <[F, T1]>                      ...  Done. Timing        0.000609 s
    Computing <[F, T2]>                      ...  Done. Timing        0.002039 s
    Computing <[V, T1]>                      ...  Done. Timing        0.001634 s
    Computing <[V, T2]> (C_2)^4              ...  Done. Timing        0.016123 s
    Computing <[V, T2]> C_4 (C_2)^2 HH       ...  Done. Timing        0.002560 s
    Computing <[V, T2]> C_4 (C_2)^2 PP       ...  Done. Timing        0.008014 s
    Computing <[V, T2]> C_4 (C_2)^2 PH       ...  Done. Timing        0.017331 s
    Computing <[V, T2]> C_6 C_2              ...  Done. Timing        0.013176 s

  ==> Excitation Amplitudes Summary <==

    Active Indices:    0    1    2    3    4    5 
    Largest T1 amplitudes for spin case A:
       i       a                  i       a                  i       a               
    --------------------------------------------------------------------------------
    [  5      72    ] 0.072084 [  4      58    ]-0.070971 [  4      53    ]-0.064667 
    [  4      61    ]-0.060647 [  5      65    ] 0.054535 [  4      63    ] 0.054162 
    [  5      37    ]-0.052418 [  4      87    ] 0.050882 [  4      83    ]-0.044105 
    [  4      49    ]-0.041159 [  5      85    ] 0.040804 [  5      44    ]-0.039296 
    [  4      67    ]-0.037370 [  5      93    ]-0.037257 [  4      95    ] 0.034633 
    --------------------------------------------------------------------------------
    Norm of T1A vector: (nonzero elements: 741)                   0.235184696193008.
    --------------------------------------------------------------------------------
    Largest T1 amplitudes for spin case B:
       _       _                  _       _                  _       _               
       i       a                  i       a                  i       a               
    --------------------------------------------------------------------------------
    [  5      72    ] 0.072084 [  4      58    ]-0.070971 [  4      53    ]-0.064667 
    [  4      61    ]-0.060647 [  5      65    ] 0.054535 [  4      63    ] 0.054162 
    [  5      37    ]-0.052418 [  4      87    ] 0.050882 [  4      83    ]-0.044105 
    [  4      49    ]-0.041159 [  5      85    ] 0.040804 [  5      44    ]-0.039296 
    [  4      67    ]-0.037370 [  5      93    ]-0.037257 [  4      95    ] 0.034633 
    --------------------------------------------------------------------------------
    Norm of T1B vector: (nonzero elements: 741)                   0.235184696193008.
    --------------------------------------------------------------------------------
    Largest T2 amplitudes for spin case AA:
     i   j   a   b              i   j   a   b              i   j   a   b             
    --------------------------------------------------------------------------------
    [  3   4   4  31]  0.033056 [  2   3   2  31] -0.029876 [  2   4   4  32]  0.026556 
    [  0   3   0  31] -0.026282 [  1   3   1  31] -0.025328 [  2   3   3  32]  0.025175 
    [  1   5   5  23] -0.022823 [  0   2   0  32] -0.021091 [  3   5   5  31]  0.020945 
    [  0   3   3  26]  0.020840 [  0   2   2  26]  0.020789 [  1   2   1  32] -0.020572 
    [  2   4   2  63]  0.020271 [  0   4   4  26]  0.020154 [  3   4   3  63]  0.019682 
    --------------------------------------------------------------------------------
    Norm of T2AA vector: (nonzero elements: 537836)               0.487219836977251.
    --------------------------------------------------------------------------------
    Largest T2 amplitudes for spin case AB:
         _       _                  _       _                  _       _             
     i   j   a   b              i   j   a   b              i   j   a   b             
    --------------------------------------------------------------------------------
    [  3   3   3  31] -0.038187 [  0   3   0  31] -0.032573 [  2   3   2  31] -0.031089 
    [  2   2   2  32] -0.029289 [  1   3   1  31] -0.026175 [  0   2   0  32] -0.025707 
    [  0   1   0  23]  0.023862 [  1   3   0  48]  0.023724 [  3   3  31  31] -0.023509 
    [  0   3   1  48]  0.022738 [  2   2   2  50]  0.022280 [  1   1   1  23]  0.022115 
    [  2   4   2  63]  0.022029 [  1   2   1  32] -0.022010 [  0   0   0  26] -0.021920 
    --------------------------------------------------------------------------------
    Norm of T2AB vector: (nonzero elements: 663018)               0.554862764479972.
    --------------------------------------------------------------------------------
    Largest T2 amplitudes for spin case BB:
     _   _   _   _              _   _   _   _              _   _   _   _             
     i   j   a   b              i   j   a   b              i   j   a   b             
    --------------------------------------------------------------------------------
    [  3   4   4  31]  0.033056 [  2   3   2  31] -0.029876 [  2   4   4  32]  0.026556 
    [  0   3   0  31] -0.026282 [  1   3   1  31] -0.025328 [  2   3   3  32]  0.025175 
    [  1   5   5  23] -0.022823 [  0   2   0  32] -0.021091 [  3   5   5  31]  0.020945 
    [  0   3   3  26]  0.020840 [  0   2   2  26]  0.020789 [  1   2   1  32] -0.020572 
    [  2   4   2  63]  0.020271 [  0   4   4  26]  0.020154 [  3   4   3  63]  0.019682 
    --------------------------------------------------------------------------------
    Norm of T2BB vector: (nonzero elements: 537836)               0.487219836977251.
    --------------------------------------------------------------------------------

  ==> Possible Intruders <==

    T1 amplitudes larger than 0.1000 for spin case A: NULL
    T1 amplitudes larger than 0.1000 for spin case B: NULL
    T2 amplitudes larger than 0.1000 for spin case AA: NULL
    T2 amplitudes larger than 0.1000 for spin case AB: NULL
    T2 amplitudes larger than 0.1000 for spin case BB: NULL

  ==> DSRG-MRPT2 Energy Summary <==

    E0 (reference)                 =    -38.974111038204441
    <[F, T1]>                      =     -0.012056126173338
    <[F, T2]>                      =      0.012271798511840
    <[V, T1]>                      =      0.011416793314203
    <[V, T2]> (C_2)^4              =     -0.153748819555608
    <[V, T2]> C_4 (C_2)^2 HH       =      0.000000000000000
    <[V, T2]> C_4 (C_2)^2 PP       =      0.034345253280575
    <[V, T2]> C_4 (C_2)^2 PH       =      0.007533230065003
    <[V, T2]> C_6 C_2              =     -0.000663987740964
    <[V, T2]>                      =     -0.112534323950994
    DSRG-MRPT2 correlation energy  =     -0.100901858298290
    DSRG-MRPT2 total energy        =    -39.075012896502727
    max(T1)                        =      0.072084463375556
    max(T2)                        =      0.038186646623285
    ||T1||                         =      0.332601387018748
    ||T2||                         =      1.306237761172791

  Energy took      2.068 s

  =>** After self.dsrg_solver.compute_energy() **<=

  Semicanonical orbitals must be used!


  ==> Total Timings (s) for Computing Commutators <==

           [H1, T1]    [H1, T2]    [H2, T1]    [H2, T2]  
    -----------------------------------------------------
    -> C0       0.001       0.002       0.002       0.057
    -> C1       0.000       0.000       0.000       0.000
    -> C2                   0.000       0.000       0.000
    -----------------------------------------------------


  Time to prepare integrals:      123.879 seconds
  Time to run job          :      368.996 seconds
  Total                    :      492.874 seconds
