
    -----------------------------------------------------------------------
          Psi4: An Open-Source Ab Initio Electronic Structure Package
                               Psi4 1.9.1 release

                         Git: Rev {HEAD} f53cdd7 


    D. G. A. Smith, L. A. Burns, A. C. Simmonett, R. M. Parrish,
    M. C. Schieber, R. Galvelis, P. Kraus, H. Kruse, R. Di Remigio,
    A. Alenaizan, A. M. James, S. Lehtola, J. P. Misiewicz, M. Scheurer,
    R. A. Shaw, J. B. Schriber, Y. Xie, Z. L. Glick, D. A. Sirianni,
    J. S. O'Brien, J. M. Waldrop, A. Kumar, E. G. Hohenstein,
    B. P. Pritchard, B. R. Brooks, H. F. Schaefer III, A. Yu. Sokolov,
    K. Patkowski, A. E. DePrince III, U. Bozkaya, R. A. King,
    F. A. Evangelista, J. M. Turney, T. D. Crawford, C. D. Sherrill,
    J. Chem. Phys. 152(18) 184108 (2020). https://doi.org/10.1063/5.0006002

                            Additional Code Authors
    E. T. Seidl, C. L. Janssen, E. F. Valeev, M. L. Leininger,
    J. F. Gonthier, R. M. Richard, H. R. McAlexander, M. Saitow, X. Wang,
    P. Verma, M. H. Lechner, A. Jiang, S. Behnle, A. G. Heide,
    M. F. Herbst, and D. L. Poole

             Previous Authors, Complete List of Code Contributors,
                       and Citations for Specific Modules
    https://github.com/psi4/psi4/blob/master/codemeta.json
    https://github.com/psi4/psi4/graphs/contributors
    http://psicode.org/psi4manual/master/introduction.html#citing-psifour

    -----------------------------------------------------------------------


    Psi4 started on: Sunday, 11 May 2025 11:21AM

    Process ID: 3997958
    Host:       hydrogen
    PSIDATADIR: /data/home/sydong/opt/psi4/share/psi4
    Memory:     500.0 MiB
    Threads:    1
    Molecule: geometry: Molecule is not complete, please use 'update_geometry'
                    once all variables are set.
Molecule: Setting geometry variable r_ch to 2.041300
Molecule: Setting geometry variable ahch to 134.220000

Scratch directory: /data/home/sydong/scratch/psi4/
   => Libint2 <=

    Primary   basis highest AM E, G, H:  6, 6, 3
    Auxiliary basis highest AM E, G, H:  7, 7, 4
    Onebody   basis highest AM E, G, H:  -, -, -
    Solid Harmonics ordering:            Gaussian

*** tstart() called on hydrogen
*** at Sun May 11 11:21:59 2025

   => Loading Basis Set <=

    Name: CC-PVDZ-F12
    Role: ORBITAL
    Keyword: BASIS
    atoms 1   entry C          line   170 file /data/home/sydong/opt/psi4/share/psi4/basis/cc-pvdz-f12.gbs 
    atoms 2-3 entry H          line    12 file /data/home/sydong/opt/psi4/share/psi4/basis/cc-pvdz-f12.gbs 


         ---------------------------------------------------------
                                   SCF
               by Justin Turney, Rob Parrish, Andy Simmonett
                          and Daniel G. A. Smith
                             ROHF Reference
                        1 Threads,    500 MiB Core
         ---------------------------------------------------------

  ==> Geometry <==

    Molecular point group: c1
    Full point group: C2v

    Geometry (in Bohr), charge = 0, multiplicity = 3:

       Center              X                  Y                   Z               Mass       
    ------------   -----------------  -----------------  -----------------  -----------------
         C            0.000000000000     0.000000000000    -0.114187142306    12.000000000000
         H            0.000000000000    -1.880554374510     0.679803370554     1.007825032230
         H            0.000000000000     1.880554374510     0.679803370554     1.007825032230

  Running in c1 symmetry.

  Rotational constants: A =     55.33252  B =      8.44515  C =      7.32688 [cm^-1]
  Rotational constants: A = 1658827.28534  B = 253179.19035  C = 219654.35493 [MHz]
  Nuclear repulsion =    6.144485814575831

  Charge       = 0
  Multiplicity = 3
  Electrons    = 8
  Nalpha       = 5
  Nbeta        = 3

  ==> Algorithm <==

  SCF Algorithm Type is PK.
  DIIS enabled.
  MOM disabled.
  Fractional occupation disabled.
  Guess Type is SAD.
  Energy threshold   = 1.00e-10
  Density threshold  = 1.00e-08
  Integral threshold = 1.00e-12

  ==> Primary Basis <==

  Basis Set: CC-PVDZ-F12
    Blend: CC-PVDZ-F12
    Number of shells: 22
    Number of basis functions: 48
    Number of Cartesian functions: 50
    Spherical Harmonics?: true
    Max angular momentum: 2

  ==> Integral Setup <==

  Using in-core PK algorithm.
   Calculation information:
      Number of atoms:                   3
      Number of AO shells:              22
      Number of primitives:             41
      Number of atomic orbitals:        50
      Number of basis functions:        48

      Integral cutoff                 1.00e-12
      Number of threads:                 1

  Performing in-core PK
  Using 1384152 doubles for integral storage.
  We computed 32131 shell quartets total.
  Whereas there are 32131 unique shell quartets.

  ==> DiskJK: Disk-Based J/K Matrices <==

    J tasked:                  Yes
    K tasked:                  Yes
    wK tasked:                  No
    Memory [MiB]:              375
    Schwarz Cutoff:          1E-12

    OpenMP threads:              1

  Minimum eigenvalue in the overlap matrix is 3.4273603031E-03.
  Reciprocal condition number of the overlap matrix is 6.2962610258E-04.
    Using symmetric orthogonalization.

  ==> Pre-Iterations <==

  SCF Guess: Superposition of Atomic Densities via on-the-fly atomic UHF (no occupation information).

   -------------------------
    Irrep   Nso     Nmo    
   -------------------------
     A         48      48 
   -------------------------
    Total      48      48
   -------------------------

  ==> Iterations <==

                        Total Energy        Delta E     RMS |[F,P]|

   @ROHF iter SAD:   -38.15369010472814   -3.81537e+01   0.00000e+00 
   @ROHF iter   1:   -38.91865015107643   -7.64960e-01   2.10979e-03 DIIS
   @ROHF iter   2:   -38.93013744676179   -1.14873e-02   6.02870e-04 DIIS
   @ROHF iter   3:   -38.93140817509858   -1.27073e-03   2.12111e-04 DIIS
   @ROHF iter   4:   -38.93159124972736   -1.83075e-04   5.37472e-05 DIIS
   @ROHF iter   5:   -38.93160216696198   -1.09172e-05   2.06247e-05 DIIS
   @ROHF iter   6:   -38.93160410961556   -1.94265e-06   4.95625e-06 DIIS
   @ROHF iter   7:   -38.93160421433367   -1.04718e-07   8.62175e-07 DIIS
   @ROHF iter   8:   -38.93160421731292   -2.97925e-09   2.54975e-07 DIIS
   @ROHF iter   9:   -38.93160421751909   -2.06164e-10   7.39898e-08 DIIS
   @ROHF iter  10:   -38.93160421754593   -2.68443e-11   1.11872e-08 DIIS
   @ROHF iter  11:   -38.93160421754644   -5.11591e-13   1.53221e-09 DIIS
  Energy and wave function converged.


  ==> Post-Iterations <==

    Orbital Energies [Eh]
    ---------------------

    Doubly Occupied:                                                      

       1A    -11.246681     2A     -0.852277     3A     -0.603663  

    Singly Occupied:                                                      

       4A     -0.148656     5A     -0.108709  

    Virtual:                                                              

       6A      0.085780     7A      0.086344     8A      0.103492  
       9A      0.105040    10A      0.231090    11A      0.263931  
      12A      0.478415    13A      0.510158    14A      0.573790  
      15A      0.587607    16A      0.601991    17A      0.605124  
      18A      0.673922    19A      0.749704    20A      0.756034  
      21A      0.822630    22A      0.994079    23A      0.996654  
      24A      1.180598    25A      1.183635    26A      1.293380  
      27A      1.348245    28A      1.581997    29A      2.260016  
      30A      2.304943    31A      2.621759    32A      2.642254  
      33A      2.729273    34A      2.870513    35A      2.898511  
      36A      2.906291    37A      3.029372    38A      3.242247  
      39A      3.302071    40A      3.311129    41A      3.398500  
      42A      3.537887    43A      4.252741    44A      4.279436  
      45A      7.295594    46A      9.243441    47A      9.386721  
      48A      9.852385  

    Final Occupation by Irrep:
              A 
    DOCC [     3 ]
    SOCC [     2 ]
    NA   [     5 ]
    NB   [     3 ]

  @ROHF Final Energy:   -38.93160421754644

   => Energetics <=

    Nuclear Repulsion Energy =              6.1444858145758312
    One-Electron Energy =                 -63.8787324390079618
    Two-Electron Energy =                  18.8026424068856883
    Total Energy =                        -38.9316042175464432

Computation Completed


Properties will be evaluated at   0.000000,   0.000000,   0.000000 [a0]

Properties computed using the SCF density matrix


 Multipole Moments:

 ------------------------------------------------------------------------------------
     Multipole            Electronic (a.u.)      Nuclear  (a.u.)        Total (a.u.)
 ------------------------------------------------------------------------------------

 L = 1.  Multiply by 2.5417464519 to convert [e a0] to [Debye]
 Dipole X            :          0.0000000            0.0000000            0.0000000
 Dipole Y            :          0.0000000            0.0000000            0.0000000
 Dipole Z            :         -0.4468420            0.6744839            0.2276419
 Magnitude           :                                                    0.2276419

 ------------------------------------------------------------------------------------

*** tstop() called on hydrogen at Sun May 11 11:21:59 2025
Module time:
	user time   =       0.25 seconds =       0.00 minutes
	system time =       0.05 seconds =       0.00 minutes
	total time  =          0 seconds =       0.00 minutes
Total time:
	user time   =       0.25 seconds =       0.00 minutes
	system time =       0.05 seconds =       0.00 minutes
	total time  =          0 seconds =       0.00 minutes

Scratch directory: /data/home/sydong/scratch/psi4/

  Forte
  ----------------------------------------------------------------------------
  A suite of quantum chemistry methods for strongly correlated electrons

    git branch: ct_forte - git commit: 41562031

  Developed by:
    Francesco A. Evangelista, Chenyang Li, Kevin P. Hannon,
    Jeffrey B. Schriber, Tianyuan Zhang, Chenxi Cai,
    Nan He, Nicholas Stair, Shuhe Wang, Renke Huang
  ----------------------------------------------------------------------------

  Forte will use options passed as a dictionary. Option read from psi4 will be ignored


  Preparing forte objects from a Psi4 Wavefunction object Using basis set CC-PVDZ-F12 from Psi4 global options.   => Loading Basis Set <=

    Name: CC-PVDZ-F12
    Role: ORBITAL
    Keyword: BASIS
    atoms 1   entry C          line   170 file /data/home/sydong/opt/psi4/share/psi4/basis/cc-pvdz-f12.gbs 
    atoms 2-3 entry H          line    12 file /data/home/sydong/opt/psi4/share/psi4/basis/cc-pvdz-f12.gbs 



  ==> MO Space Information <==

  -------------------------------
                        A   Sum
  -------------------------------
    FROZEN_DOCC         1     1
    RESTRICTED_DOCC     0     0
    GAS1                6     6
    GAS2                0     0
    GAS3                0     0
    GAS4                0     0
    GAS5                0     0
    GAS6                0     0
    RESTRICTED_UOCC    41    41
    FROZEN_UOCC         0     0
    Total              48    48
  -------------------------------   => Loading Basis Set <=

    Name: STO-3G
    Role: ORBITAL
    Keyword: MINAO_BASIS
    atoms 1   entry C          line    61 file /data/home/sydong/opt/psi4/share/psi4/basis/sto-3g.gbs 
    atoms 2-3 entry H          line    19 file /data/home/sydong/opt/psi4/share/psi4/basis/sto-3g.gbs 


  State Triplet (Ms = 0) A GAS min: 0 0 0 0 0 0 ; GAS max: 12 0 0 0 0 0 ; weights:
      1.000000000000
  Forte will use psi4 integrals

  ==> Primary Basis Set Summary <==

  Basis Set: CC-PVDZ-F12
    Blend: CC-PVDZ-F12
    Number of shells: 22
    Number of basis functions: 48
    Number of Cartesian functions: 50
    Spherical Harmonics?: true
    Max angular momentum: 2


  JK created using conventional PK integrals
  Using in-core PK algorithm.
   Calculation information:
      Number of atoms:                   3
      Number of AO shells:              22
      Number of primitives:             41
      Number of atomic orbitals:        50
      Number of basis functions:        48

      Integral cutoff                 1.00e-12
      Number of threads:                 1

  Performing in-core PK
  Using 1384152 doubles for integral storage.
  We computed 32131 shell quartets total.
  Whereas there are 32131 unique shell quartets.

  ==> DiskJK: Disk-Based J/K Matrices <==

    J tasked:                  Yes
    K tasked:                  Yes
    wK tasked:                  No
    Memory [MiB]:              400
    Schwarz Cutoff:          1E-12

    OpenMP threads:              1



  ==> Integral Transformation <==

  Number of molecular orbitals:                         48
  Number of correlated molecular orbitals:              47
  Number of frozen occupied orbitals:                    1
  Number of frozen unoccupied orbitals:                  0
  Two-electron integral type:                 Conventional


  Computing Conventional Integrals	Presorting SO-basis two-electron integrals.
	Sorting File: SO Ints (nn|nn) nbuckets = 1
	Constructing frozen core operators
	Starting first half-transformation.
	Sorting half-transformed integrals.
	First half integral transformation complete.
	Starting second half-transformation.
	Two-electron integral transformation complete.

  Integral transformation done. 0.11344245 s
  Reading the two-electron integrals from disk
  Size of two-electron integrals:   0.118652 GB
  Timing for conventional integral transformation:            0.528 s.
  Frozen-core energy         -34.318500677673867 a.u.
  Timing for frozen one-body operator:                        0.003 s.
  Resorting integrals after freezing core.
  Timing for freezing core and virtual orbitals:              0.322 s.
  Timing for computing conventional integrals:                0.850 s.

          -----------------------------------------------------------
                  Multi-Configurational Self Consistent Field
                Two-Step Approximate Second-Order AO Algorithm
            written by Chenyang Li, Kevin P. Hannon, and Shuhe Wang
          -----------------------------------------------------------


  ==> MCSCF Calculation Information <==

    --------------------------------------------------------
    Print level                                      Default
    Integral type                               CONVENTIONAL
    CI solver type                                       FCI
    Final orbital type                             CANONICAL
    Derivative type                                     NONE
    Optimize orbitals                                   TRUE
    Include internal rotations                         FALSE
    Debug printing                                     FALSE
    Energy convergence                             1.000e-10
    Gradient convergence                           1.000e-06
    Max value for rotation                         2.000e-01
    Max number of macro iter.                            100
    Max number of micro iter. for orbitals                 6
    Max number of micro iter. for CI                      12
    DIIS start                                            15
    Min DIIS vectors                                       3
    Max DIIS vectors                                       8
    Frequency of DIIS extrapolation                        1
    --------------------------------------------------------

  ==> Independent Orbital Rotations <==

    ORBITAL SPACES                         A
    ----------------------------------------
             ACTIVE / RESTRICTED_DOCC      0
    RESTRICTED_UOCC /          ACTIVE    246
    RESTRICTED_UOCC / RESTRICTED_DOCC      0
    ----------------------------------------

  ==> String Lists <==

    --------------------------------------------------------
    number of alpha electrons                              3
    number of beta electrons                               3
    number of alpha strings                               20
    number of beta strings                                20
    --------------------------------------------------------

  ==> FCI Solver <==

    --------------------------------------------------------
    Spin adapt                                         FALSE
    Number of determinants                               400
    Symmetry                                               0
    Multiplicity                                           3
    Number of roots                                        1
    Target root                                            0
    --------------------------------------------------------
  Initial guess space is incomplete.
  Adding 3 determinant(s).

  ==> Initial Guess <==

  Initial guess determinants:         53

  Classification of the initial guess solutions

  Number   2S+1   Selected
  ------------------------
    24       1        
    25       3       *
     4       5        
  ------------------------

    Spin    Root           Energy        <S^2>    Status
  -------------------------------------------------------
   triplet    0      -73.250159824827  +2.000000  added
  -------------------------------------------------------

  ==> Davidson-Liu Solver <==

    --------------------------------------------------------
    Print level                                      Default
    Energy convergence threshold                   1.000e-10
    Residual convergence threshold                 1.000e-08
    Schmidt orthogonality threshold                1.000e-12
    Schmidt discard threshold                      1.000e-07
    Size of the space                                    400
    Number of roots                                        1
    Maximum number of iterations                         100
    Collapse subspace size                                 2
    Maximum subspace size                                 10
    --------------------------------------------------------

  Davidson-Liu solver: adding 1 guess vectors
  Iteration     Average Energy            max(∆E)            max(Residual)  Vectors
  ---------------------------------------------------------------------------------
       0      -38.931659147153       38.931659147153        0.015475142363      1
       1      -38.931809188862        0.000150041709        0.002018668112      2
       2      -38.931812643438        0.000003454577        0.000243299267      3
       3      -38.931812684817        0.000000041379        0.000029592418      4
       4      -38.931812685613        0.000000000796        0.000005234798      5
       5      -38.931812685645        0.000000000032        0.000001003884      6
       6      -38.931812685646        0.000000000001        0.000000105383      7
       7      -38.931812685646        0.000000000000        0.000000011990      8
       8      -38.931812685646        0.000000000000        0.000000001018      9
  ---------------------------------------------------------------------------------

  ==> Root No. 0 <==

    22ab00      0.70703655
    22ba00     -0.70703655

    Total Energy:     -38.931812685646, <S^2>: 2.000000
    Time for FCI:       0.020333927000

  ==> Energy Summary <==

    Multi.(2ms)  Irrep.  No.               Energy      <S^2>
    --------------------------------------------------------
       3  (  0)     A     0      -38.931812685646   2.000000
    --------------------------------------------------------
  Computing RDMs for dipole moments ... Done

  ==> Summary of Dipole Moments [e a0] (Nuclear + Electronic) <==

       State           DM_X           DM_Y           DM_Z           |DM|
    --------------------------------------------------------------------
          0A     0.00000000     0.00000000     0.22730460     0.22730460
    --------------------------------------------------------------------
     Nuclear     0.00000000     0.00000000     0.67448389     0.67448389
    --------------------------------------------------------------------

  ==> Natural Orbitals <==

        2A      1.999863      3A      1.999849      4A      1.000000  
        5A      1.000000      6A      0.000144      7A      0.000144  

 sydong:  unsymmetrize 2RDM


  ==> MCSCF Iterations <==

                      Energy CI                    Energy Orbital
           ------------------------------  ------------------------------
    Iter.        Total Energy       Delta        Total Energy       Delta  Orb. Grad.  Micro
    ----------------------------------------------------------------------------------------
 sydong:  unsymmetrize 2RDM

  L-BFGS Warning: Skip this vector due to negative rho
  L-BFGS Warning: Skip this vector due to negative rho
  L-BFGS Warning: Skip this vector due to negative rho
       1     -38.931812685646 -3.8932e+01    -38.936647097552 -3.8937e+01  4.7374e-04    6/N

  Davidson-Liu solver: restarting from previous calculation.
 sydong:  unsymmetrize 2RDM

       2     -38.959342158728 -2.7529e-02    -38.967068166645 -3.0421e-02  4.7753e-04    6/N

  Davidson-Liu solver: restarting from previous calculation.
 sydong:  unsymmetrize 2RDM

       3     -38.969938186940 -1.0596e-02    -38.970345694399 -3.2775e-03  1.8224e-05    6/N

  Davidson-Liu solver: restarting from previous calculation.
 sydong:  unsymmetrize 2RDM

       4     -38.970435117212 -4.9693e-04    -38.970455035774 -1.0934e-04  2.6434e-06    6/N

  Davidson-Liu solver: restarting from previous calculation.
 sydong:  unsymmetrize 2RDM

       5     -38.970460240519 -2.5123e-05    -38.970461687002 -6.6512e-06  9.3312e-07    6/N

  Davidson-Liu solver: restarting from previous calculation.
 sydong:  unsymmetrize 2RDM

       6     -38.970462116775 -1.8763e-06    -38.970462250650 -5.6365e-07  4.0424e-07    6/N

  Davidson-Liu solver: restarting from previous calculation.
 sydong:  unsymmetrize 2RDM

       7     -38.970462293893 -1.7712e-07    -38.970462308293 -5.7643e-08  1.4216e-07    5/Y

  Davidson-Liu solver: restarting from previous calculation.
 sydong:  unsymmetrize 2RDM

       8     -38.970462313186 -1.9293e-08    -38.970462314864 -6.5714e-09  3.4567e-08    4/Y

  Davidson-Liu solver: restarting from previous calculation.
 sydong:  unsymmetrize 2RDM

       9     -38.970462315455 -2.2690e-09    -38.970462315651 -7.8687e-10  1.2528e-07    2/Y

  Davidson-Liu solver: restarting from previous calculation.
 sydong:  unsymmetrize 2RDM

      10     -38.970462315716 -2.6074e-10    -38.970462315748 -9.7145e-11  7.3653e-08    2/Y

  Davidson-Liu solver: restarting from previous calculation.
 sydong:  unsymmetrize 2RDM

      11     -38.970462315759 -4.2739e-11    -38.970462315759 -1.0502e-11  1.2118e-07    0/Y
    ----------------------------------------------------------------------------------------

  A miracle has come to pass: MCSCF iterations have converged!

  Performing final CI Calculation using converged orbitals

  ==> String Lists <==

    --------------------------------------------------------
    number of alpha electrons                              3
    number of beta electrons                               3
    number of alpha strings                               20
    number of beta strings                                20
    --------------------------------------------------------

  ==> FCI Solver <==

    --------------------------------------------------------
    Spin adapt                                         FALSE
    Number of determinants                               400
    Symmetry                                               0
    Multiplicity                                           3
    Number of roots                                        1
    Target root                                            0
    --------------------------------------------------------

  ==> Davidson-Liu Solver <==

    --------------------------------------------------------
    Print level                                      Default
    Energy convergence threshold                   1.000e-10
    Residual convergence threshold                 1.000e-08
    Schmidt orthogonality threshold                1.000e-12
    Schmidt discard threshold                      1.000e-07
    Size of the space                                    400
    Number of roots                                        1
    Maximum number of iterations                         100
    Collapse subspace size                                 2
    Maximum subspace size                                 10
    --------------------------------------------------------

  Davidson-Liu solver: restarting from previous calculation.
  Iteration     Average Energy            max(∆E)            max(Residual)  Vectors
  ---------------------------------------------------------------------------------
       0      -38.970462315759        0.000000000000        0.000000007770      1
  ---------------------------------------------------------------------------------

  ==> Root No. 0 <==

    22ab00      0.69779774
    22ba00     -0.69779774
    a2bba0      0.04983536
    b2aab0     -0.04983536
    20ba02      0.04112553
    20ab02     -0.04112553
    20ba20      0.03778030
    20ab20     -0.03778030
    02ba20      0.03663340
    02ab20     -0.03663340
    abbaba     -0.03093442
    baabab      0.03093442
    babaab     -0.03006243
    ababba      0.03006243
    2abb0a     -0.02959084
    2baa0b      0.02959084
    abbaab     -0.02272893
    baabba      0.02272893
    bababa     -0.02171022
    ababab      0.02171022
    b20a20      0.01961424
    a20b20     -0.01961424
    02ba02      0.01636250
    02ab02     -0.01636250
    ba2a0b     -0.01600619
    ab2b0a      0.01600619
    2b0aab     -0.01573818
    2a0bba      0.01573818
    a2bab0      0.01547082
    b2aba0     -0.01547082
    202ab0      0.01453704
    202ba0     -0.01453704
    220ab0     -0.01239081
    220ba0      0.01239081
    2b0aba     -0.01037223
    2a0bab      0.01037223
    ab2a0b     -0.01007435
    ba2b0a      0.01007435

    Total Energy:     -38.970462315759, <S^2>: 2.000000
    Time for FCI:       0.006338533000

  ==> Energy Summary <==

    Multi.(2ms)  Irrep.  No.               Energy      <S^2>
    --------------------------------------------------------
       3  (  0)     A     0      -38.970462315759   2.000000
    --------------------------------------------------------
  Computing RDMs for dipole moments ... Done

  ==> Summary of Dipole Moments [e a0] (Nuclear + Electronic) <==

       State           DM_X           DM_Y           DM_Z           |DM|
    --------------------------------------------------------------------
          0A     0.00000000     0.00000000     0.20067082     0.20067082
    --------------------------------------------------------------------
     Nuclear     0.00000000     0.00000000     0.67448389     0.67448389
    --------------------------------------------------------------------

  ==> Natural Orbitals <==

        2A      1.980048      3A      1.976972      4A      1.000000  
        5A      0.999783      6A      0.025670      7A      0.017527  

  Canonicalizing final MCSCF orbitals

  ==> Semicanonicalize Orbitals <==

    MIX INACTIVE ORBITALS         FALSE
    MIX GAS ACTIVE ORBITALS       FALSE
    FROZEN_DOCC                   CANONICAL
    FROZEN_UOCC                   CANONICAL
    GAS1                          CANONICAL
    RESTRICTED_DOCC               CANONICAL
    RESTRICTED_UOCC               CANONICAL

    Off-Diag. Elements       Max           2-Norm
    ------------------------------------------------
    FROZEN_DOCC          0.0000000000   0.0000000000
    GAS1                 0.0474007052   0.0675483148
    RESTRICTED_UOCC      0.3292716935   1.0863339912
    ------------------------------------------------

    Canonicalization test failed

  Warning: Failed to fix orbital phase and order.
  Timing for orbital canonicalization:                        0.000 s.

  !!! WARNING: Final Active Orbitals Maybe Different from the Original !!!

    Based on projections of maximum overlap method:
           5A -> 8A        RESTRICTED_UOCC
           6A -> 7A        RESTRICTED_UOCC
  Orbital rotations on spin-free RDMs ...
    Transformed 1 RDMs.
    Transformed 2 RDMs.
  Integrals are about to be updated.
  Computing Conventional Integrals	Presorting SO-basis two-electron integrals.
	Sorting File: SO Ints (nn|nn) nbuckets = 1
	Constructing frozen core operators
	Starting first half-transformation.
	Sorting half-transformed integrals.
	First half integral transformation complete.
	Starting second half-transformation.
	Two-electron integral transformation complete.

  Integral transformation done. 0.11374534 s
  Reading the two-electron integrals from disk
  Size of two-electron integrals:   0.118652 GB
  Timing for conventional integral transformation:            0.492 s.
  Frozen-core energy         -34.318500677673867 a.u.
  Timing for frozen one-body operator:                        0.001 s.
  Resorting integrals after freezing core.
  Timing for freezing core and virtual orbitals:              0.320 s.
  Integrals update took     0.812 s.

  The integrals are not consistent with the orbitals. Re-transforming them.


  ==> String Lists <==

    --------------------------------------------------------
    number of alpha electrons                              3
    number of beta electrons                               3
    number of alpha strings                               20
    number of beta strings                                20
    --------------------------------------------------------

  ==> FCI Solver <==

    --------------------------------------------------------
    Spin adapt                                         FALSE
    Number of determinants                               400
    Symmetry                                               0
    Multiplicity                                           3
    Number of roots                                        1
    Target root                                            0
    --------------------------------------------------------
  Initial guess space is incomplete.
  Adding 1 determinant(s).

  ==> Initial Guess <==

  Initial guess determinants:         51

  Classification of the initial guess solutions

  Number   2S+1   Selected
  ------------------------
    24       1        
    24       3       *
     3       5        
  ------------------------

    Spin    Root           Energy        <S^2>    Status
  -------------------------------------------------------
   triplet    0      -73.255519426021  +2.000000  added
  -------------------------------------------------------

  ==> Davidson-Liu Solver <==

    --------------------------------------------------------
    Print level                                      Default
    Energy convergence threshold                   1.000e-10
    Residual convergence threshold                 1.000e-08
    Schmidt orthogonality threshold                1.000e-12
    Schmidt discard threshold                      1.000e-07
    Size of the space                                    400
    Number of roots                                        1
    Maximum number of iterations                         100
    Collapse subspace size                                 2
    Maximum subspace size                                 10
    --------------------------------------------------------

  Davidson-Liu solver: adding 1 guess vectors
  Iteration     Average Energy            max(∆E)            max(Residual)  Vectors
  ---------------------------------------------------------------------------------
       0      -38.937018748347       38.937018748347        0.250080779002      1
       1      -38.969689784008        0.032671035661        0.042757976788      2
       2      -38.970446175468        0.000756391460        0.005392168511      3
       3      -38.970461459937        0.000015284470        0.001281003565      4
       4      -38.970462283940        0.000000824002        0.000238468386      5
       5      -38.970462314480        0.000000030541        0.000046932812      6
       6      -38.970462315713        0.000000001232        0.000009455163      7
       7      -38.970462315758        0.000000000045        0.000001179130      8
       8      -38.970462315759        0.000000000001        0.000000195984      9
       9      -38.970462315759        0.000000000000        0.000000028630     10
      10      -38.970462315759        0.000000000000        0.000000006085      3
  ---------------------------------------------------------------------------------

  ==> Root No. 0 <==

    22ba00      0.69617391
    22ab00     -0.69617391
    b2aab0     -0.04935064
    a2bba0      0.04935064
    b22a00     -0.04866556
    a22b00      0.04866556
    20ab02      0.04091480
    20ba02     -0.04091480
    20ab20      0.03793078
    20ba20     -0.03793078
    02ab20      0.03524085
    02ba20     -0.03524085
    baabab      0.03018729
    abbaba     -0.03018729
    ababba      0.03015030
    babaab     -0.03015030
    2baa0b     -0.02895038
    2abb0a      0.02895038
    a20b20      0.02178292
    b20a20     -0.02178292
    ababab      0.02171022
    bababa     -0.02171022
    baabba      0.02154664
    abbaab     -0.02154664
    2a0bba      0.01693151
    2b0aab     -0.01693151
    02ab02      0.01635723
    02ba02     -0.01635723
    ab2b0a     -0.01561974
    ba2a0b      0.01561974
    b2aba0     -0.01463463
    a2bab0      0.01463463
    202ba0     -0.01431821
    202ab0      0.01431821
    2a0bab      0.01230413
    2b0aba     -0.01230413
    ba2b0a     -0.01191047
    ab2a0b      0.01191047
    220ba0      0.01071778
    220ab0     -0.01071778
    a2abb0      0.01016367
    b2baa0     -0.01016367

    Total Energy:     -38.970462315759, <S^2>: 2.000000
    Time for FCI:       0.023632882000

  ==> Energy Summary <==

    Multi.(2ms)  Irrep.  No.               Energy      <S^2>
    --------------------------------------------------------
       3  (  0)     A     0      -38.970462315759   2.000000
    --------------------------------------------------------
  Computing RDMs for dipole moments ... Done

  ==> Summary of Dipole Moments [e a0] (Nuclear + Electronic) <==

       State           DM_X           DM_Y           DM_Z           |DM|
    --------------------------------------------------------------------
          0A     0.00000000     0.00000000     0.22148918     0.22148918
    --------------------------------------------------------------------
     Nuclear     0.00000000     0.00000000     0.67448389     0.67448389
    --------------------------------------------------------------------

  ==> Natural Orbitals <==

        2A      1.980048      3A      1.976972      4A      1.000000  
        5A      0.999783      6A      0.025670      7A      0.017527  


  ==> Semicanonicalize Orbitals <==

    MIX INACTIVE ORBITALS         FALSE
    MIX GAS ACTIVE ORBITALS       FALSE
    FROZEN_DOCC                   CANONICAL
    FROZEN_UOCC                   CANONICAL
    GAS1                          CANONICAL
    RESTRICTED_DOCC               CANONICAL
    RESTRICTED_UOCC               CANONICAL

    Off-Diag. Elements       Max           2-Norm
    ------------------------------------------------
    FROZEN_DOCC          0.0000000000   0.0000000000
    GAS1                 0.0000000011   0.0000000018
    RESTRICTED_UOCC      0.0000000003   0.0000000018
    ------------------------------------------------

    Canonicalization test passed

  Orbitals are already semicanonicalized.
  Timing for orbital canonicalization:                        0.007 s.

  ==> Multireference Driven Similarity Renormalization Group <==

    Computing Fock matrix and cleaning JK ........... Done
    Reading DSRG options ............................ Done
    Setting ambit MO space .......................... Done
    Preparing tensors for density cumulants ......... Done
    Filling Fock matrix from ForteIntegrals ......... Done

              ----------------------------------------------------
                    MR-DSRG Second-Order Perturbation Theory
                Chenyang Li, Kevin Hannon, Francesco Evangelista
              ----------------------------------------------------

    References:
      u-DSRG-MRPT2:    J. Chem. Theory Comput. 2015, 11, 2097.
      (pr-)DSRG-MRPT2: J. Chem. Phys. 2017, 146, 124132.

  ==> Calculation Information <==

    --------------------------------------------------------
    int_type                                    CONVENTIONAL
    source operator                                 STANDARD
    reference relaxation                                NONE
    state_type                                STATE-SPECIFIC
    form Hbar3                                         FALSE
    flow parameter                                 5.000e-01
    taylor expansion threshold                     1.000e-03
    intruder_tamp                                  1.000e-01
    ntamp                                                 15
    --------------------------------------------------------
  =>** Before self.dsrg_solver.compute_energy() **<=


  ==> Checking Semicanonical Orbitals <==

    Block             Fa Max         Fa Mean           Fb Max         Fb Mean
    -------------------------------------------------------------------------
    CORE        0.0000000000    0.0000000000     0.0000000000    0.0000000000
    VIRTUAL     0.0000000003    0.0000000000     0.0000000003    0.0000000000
    GAS1        0.0000000011    0.0000000001     0.0000000011    0.0000000001
    -------------------------------------------------------------------------
    Orbitals are semi-canonicalized.

  ==> Computing DSRG-MRPT2 ... <==

    Computing T2 amplitudes                  ...  Done. Timing        0.011732 s
    Computing T1 amplitudes                  ...  Done. Timing        0.001316 s
    Renormalizing two-electron integrals     ...  Done. Timing        0.010208 s
    Renormalizing Fock matrix elements       ...  Done. Timing        0.001401 s
    Computing <[F, T1]>                      ...  Done. Timing        0.000585 s
    Computing <[F, T2]>                      ...  Done. Timing        0.001671 s
    Computing <[V, T1]>                      ...  Done. Timing        0.001455 s
    Computing <[V, T2]> (C_2)^4              ...  Done. Timing        0.011095 s
    Computing <[V, T2]> C_4 (C_2)^2 HH       ...  Done. Timing        0.002576 s
    Computing <[V, T2]> C_4 (C_2)^2 PP       ...  Done. Timing        0.003543 s
    Computing <[V, T2]> C_4 (C_2)^2 PH       ...  Done. Timing        0.013537 s
    Computing <[V, T2]> C_6 C_2              ...  Done. Timing        0.010910 s

  ==> Excitation Amplitudes Summary <==

    Active Indices:    0    1    2    3    4    5 
    Largest T1 amplitudes for spin case A:
       i       a                  i       a                  i       a               
    --------------------------------------------------------------------------------
    [  4      26    ]-0.109923 [  5      29    ]-0.106826 [  5      32    ]-0.091519 
    [  5      35    ]-0.080782 [  4      30    ] 0.071827 [  5      41    ] 0.053454 
    [  4      25    ] 0.052994 [  4      42    ]-0.046689 [  5      24    ] 0.046158 
    [  5      10    ] 0.041226 [  4      36    ]-0.039937 [  5      22    ]-0.032909 
    [  5      38    ] 0.026521 [  3      14    ] 0.020781 [  4      11    ] 0.018944 
    --------------------------------------------------------------------------------
    Norm of T1A vector: (nonzero elements: 173)                   0.248663509907921.
    --------------------------------------------------------------------------------
    Largest T1 amplitudes for spin case B:
       _       _                  _       _                  _       _               
       i       a                  i       a                  i       a               
    --------------------------------------------------------------------------------
    [  4      26    ]-0.109923 [  5      29    ]-0.106826 [  5      32    ]-0.091519 
    [  5      35    ]-0.080782 [  4      30    ] 0.071827 [  5      41    ] 0.053454 
    [  4      25    ] 0.052994 [  4      42    ]-0.046689 [  5      24    ] 0.046158 
    [  5      10    ] 0.041226 [  4      36    ]-0.039937 [  5      22    ]-0.032909 
    [  5      38    ] 0.026521 [  3      14    ] 0.020781 [  4      11    ] 0.018944 
    --------------------------------------------------------------------------------
    Norm of T1B vector: (nonzero elements: 173)                   0.248663509907921.
    --------------------------------------------------------------------------------
    Largest T2 amplitudes for spin case AA:
     i   j   a   b              i   j   a   b              i   j   a   b             
    --------------------------------------------------------------------------------
    [  3   5   5  14] -0.031183 [  2   3   2  14]  0.028025 [  3   5   5  27] -0.027963 
    [  2   5   5  28] -0.027245 [  0   5   0  32] -0.026728 [  3   5   3  32] -0.026659 
    [  4   5   4  32] -0.025991 [  2   5   2  32] -0.025608 [  2   5   5  15] -0.024994 
    [  1   3   1  14]  0.024861 [  0   3   0  14]  0.024334 [  2   3   2  27]  0.023661 
    [  1   4   4  12] -0.023536 [  2   3   3  15] -0.023397 [  0   3   0  27]  0.022465 
    --------------------------------------------------------------------------------
    Norm of T2AA vector: (nonzero elements: 32632)                0.473605874253031.
    --------------------------------------------------------------------------------
    Largest T2 amplitudes for spin case AB:
         _       _                  _       _                  _       _             
     i   j   a   b              i   j   a   b              i   j   a   b             
    --------------------------------------------------------------------------------
    [  5   5   5  32] -0.038424 [  3   3   3  14]  0.035118 [  0   3   0  14]  0.032091 
    [  2   3   2  14]  0.030762 [  3   3  14  14] -0.029157 [  1   1   1  12]  0.028757 
    [  0   1   0  12]  0.028623 [  2   2   2  15]  0.028113 [  5   5   1  38] -0.027957 
    [  0   5   0  32] -0.027566 [  1   3   1  14]  0.026771 [  4   5   4  32] -0.026531 
    [  0   2   0  15]  0.026501 [  1   5   0  36]  0.026202 [  5   5   4  36] -0.026020 
    --------------------------------------------------------------------------------
    Norm of T2AB vector: (nonzero elements: 40788)                0.536491426374418.
    --------------------------------------------------------------------------------
    Largest T2 amplitudes for spin case BB:
     _   _   _   _              _   _   _   _              _   _   _   _             
     i   j   a   b              i   j   a   b              i   j   a   b             
    --------------------------------------------------------------------------------
    [  3   5   5  14] -0.031183 [  2   3   2  14]  0.028025 [  3   5   5  27] -0.027963 
    [  2   5   5  28] -0.027245 [  0   5   0  32] -0.026728 [  3   5   3  32] -0.026659 
    [  4   5   4  32] -0.025991 [  2   5   2  32] -0.025608 [  2   5   5  15] -0.024994 
    [  1   3   1  14]  0.024861 [  0   3   0  14]  0.024334 [  2   3   2  27]  0.023661 
    [  1   4   4  12] -0.023536 [  2   3   3  15] -0.023397 [  0   3   0  27]  0.022465 
    --------------------------------------------------------------------------------
    Norm of T2BB vector: (nonzero elements: 32632)                0.473605874253031.
    --------------------------------------------------------------------------------

  ==> Possible Intruders <==

    T1 amplitudes larger than 0.1000 for spin case A:
        Amplitude         Value                  Denominator              
    ----------------------------------------------------------------------
    [  4      26    ]   -0.10992268 (  0.579389 -   1.490672 =  -0.911283)
    [  5      29    ]   -0.10682618 (  0.809377 -   2.597247 =  -1.787869)
    ----------------------------------------------------------------------
    T1 amplitudes larger than 0.1000 for spin case B:
        Amplitude         Value                  Denominator              
    ----------------------------------------------------------------------
    [  4      26    ]   -0.10992268 (  0.579389 -   1.490672 =  -0.911283)
    [  5      29    ]   -0.10682618 (  0.809377 -   2.597247 =  -1.787869)
    ----------------------------------------------------------------------
    T2 amplitudes larger than 0.1000 for spin case AA: NULL
    T2 amplitudes larger than 0.1000 for spin case AB: NULL
    T2 amplitudes larger than 0.1000 for spin case BB: NULL

  ==> DSRG-MRPT2 Energy Summary <==

    E0 (reference)                 =    -38.970462315758724
    <[F, T1]>                      =     -0.012255933044612
    <[F, T2]>                      =      0.012181877093550
    <[V, T1]>                      =      0.011484702807857
    <[V, T2]> (C_2)^4              =     -0.131213668220742
    <[V, T2]> C_4 (C_2)^2 HH       =      0.000000000000000
    <[V, T2]> C_4 (C_2)^2 PP       =      0.029279250552294
    <[V, T2]> C_4 (C_2)^2 PH       =      0.007391121511408
    <[V, T2]> C_6 C_2              =     -0.000708302601335
    <[V, T2]>                      =     -0.095251598758375
    DSRG-MRPT2 correlation energy  =     -0.083840951901580
    DSRG-MRPT2 total energy        =    -39.054303267660302
    max(T1)                        =      0.109922682789426
    max(T2)                        =      0.038424077197213
    ||T1||                         =      0.351663308179078
    ||T2||                         =      1.264870448127786

  Energy took      0.180 s

  =>** After self.dsrg_solver.compute_energy() **<=

  Semicanonical orbitals must be used!


  ==> Total Timings (s) for Computing Commutators <==

           [H1, T1]    [H1, T2]    [H2, T1]    [H2, T2]  
    -----------------------------------------------------
    -> C0       0.001       0.002       0.001       0.042
    -> C1       0.000       0.000       0.000       0.000
    -> C2                   0.000       0.000       0.000
    -----------------------------------------------------


  Time to prepare integrals:        1.164 seconds
  Time to run job          :        3.646 seconds
  Total                    :        4.811 seconds
