
    -----------------------------------------------------------------------
          Psi4: An Open-Source Ab Initio Electronic Structure Package
                               Psi4 1.9.1 release

                         Git: Rev {HEAD} f53cdd7 


    D. G. A. Smith, L. A. Burns, A. C. Simmonett, R. M. Parrish,
    M. C. Schieber, R. Galvelis, P. Kraus, H. Kruse, R. Di Remigio,
    A. Alenaizan, A. M. James, S. Lehtola, J. P. Misiewicz, M. Scheurer,
    R. A. Shaw, J. B. Schriber, Y. Xie, Z. L. Glick, D. A. Sirianni,
    J. S. O'Brien, J. M. Waldrop, A. Kumar, E. G. Hohenstein,
    B. P. Pritchard, B. R. Brooks, H. F. Schaefer III, A. Yu. Sokolov,
    K. Patkowski, A. E. DePrince III, U. Bozkaya, R. A. King,
    F. A. Evangelista, J. M. Turney, T. D. Crawford, C. D. Sherrill,
    J. Chem. Phys. 152(18) 184108 (2020). https://doi.org/10.1063/5.0006002

                            Additional Code Authors
    E. T. Seidl, C. L. Janssen, E. F. Valeev, M. L. Leininger,
    J. F. Gonthier, R. M. Richard, H. R. McAlexander, M. Saitow, X. Wang,
    P. Verma, M. H. Lechner, A. Jiang, S. Behnle, A. G. Heide,
    M. F. Herbst, and D. L. Poole

             Previous Authors, Complete List of Code Contributors,
                       and Citations for Specific Modules
    https://github.com/psi4/psi4/blob/master/codemeta.json
    https://github.com/psi4/psi4/graphs/contributors
    http://psicode.org/psi4manual/master/introduction.html#citing-psifour

    -----------------------------------------------------------------------


    Psi4 started on: Sunday, 11 May 2025 11:17AM

    Process ID: 3997794
    Host:       hydrogen
    PSIDATADIR: /data/home/sydong/opt/psi4/share/psi4
    Memory:     500.0 MiB
    Threads:    1
    Molecule: geometry: Molecule is not complete, please use 'update_geometry'
                    once all variables are set.
Molecule: Setting geometry variable r_ch to 2.041300
Molecule: Setting geometry variable ahch to 134.220000

Scratch directory: /data/home/sydong/scratch/psi4/

  Forte
  ----------------------------------------------------------------------------
  A suite of quantum chemistry methods for strongly correlated electrons

    git branch: ct_forte - git commit: 41562031

  Developed by:
    Francesco A. Evangelista, Chenyang Li, Kevin P. Hannon,
    Jeffrey B. Schriber, Tianyuan Zhang, Chenxi Cai,
    Nan He, Nicholas Stair, Shuhe Wang, Renke Huang
  ----------------------------------------------------------------------------

  Forte will use options passed as a dictionary. Option read from psi4 will be ignored

  Forte will use custom integrals
  Preparing forte objects from a custom source

  Reading integral information from FCIDUMP file MRDRESSED.DUMP

  ==> MO Space Information <==

  -------------------------------
                        A   Sum
  -------------------------------
    FROZEN_DOCC         1     1
    RESTRICTED_DOCC     0     0
    GAS1                6     6
    GAS2                0     0
    GAS3                0     0
    GAS4                0     0
    GAS5                0     0
    GAS6                0     0
    RESTRICTED_UOCC    41    41
    FROZEN_UOCC         0     0
    Total              48    48
  -------------------------------

  ==> Integral Transformation <==

  Number of molecular orbitals:                         48
  Number of correlated molecular orbitals:              47
  Number of frozen occupied orbitals:                    1
  Number of frozen unoccupied orbitals:                  0
  Two-electron integral type:                       Custom


  Frozen-core energy         -34.318471226098758 a.u.
  Timing for frozen one-body operator:                        0.001 s.
  Resorting integrals after freezing core.
  Timing for freezing core and virtual orbitals:              0.314 s.
  Timing for preparing custom integrals:                      0.325 s.

          -----------------------------------------------------------
                  Multi-Configurational Self Consistent Field
                Two-Step Approximate Second-Order AO Algorithm
            written by Chenyang Li, Kevin P. Hannon, and Shuhe Wang
          -----------------------------------------------------------


  ==> MCSCF Calculation Information <==

    --------------------------------------------------------
    Print level                                      Default
    Integral type                                    FCIDUMP
    CI solver type                                     DETCI
    Final orbital type                             CANONICAL
    Derivative type                                     NONE
    Optimize orbitals                                   TRUE
    Include internal rotations                         FALSE
    Debug printing                                     FALSE
    Energy convergence                             1.000e-10
    Gradient convergence                           1.000e-06
    Max value for rotation                         2.000e-01
    Max number of macro iter.                            100
    Max number of micro iter. for orbitals                 4
    Max number of micro iter. for CI                      12
    DIIS start                                            15
    Min DIIS vectors                                       3
    Max DIIS vectors                                       8
    Frequency of DIIS extrapolation                        1
    --------------------------------------------------------

  ==> Independent Orbital Rotations <==

    ORBITAL SPACES                         A
    ----------------------------------------
             ACTIVE / RESTRICTED_DOCC      0
    RESTRICTED_UOCC /          ACTIVE    246
    RESTRICTED_UOCC / RESTRICTED_DOCC      0
    ----------------------------------------

  ==> General Determinant-Based CI Solver <==

  Number of active orbitals: 6
  Number of active alpha electrons: 3
  Number of active beta electrons: 3
  Number of determinants (CAS): 400

  ==> Diagonalizing Hamiltonian Triplet (Ms = 0)  <==


  Davidson-Liu solver algorithm using SigmaVectorSparseList sigma algorithm

  Spin-adaptation of the initial guess based on minimum spin-complete subset
  Initial guess determinants do not form a spin-complete set. 5 determinant(s) missing

  Guess determinants after screening: 47

  ==> Initial Guess <==

  Initial guess determinants:         47

  Classification of the initial guess solutions

  Number   2S+1   Selected
  ------------------------
    22       1        
    22       3       *
     3       5        
  ------------------------

    Spin    Root           Energy        <S^2>    Status
  -------------------------------------------------------
   triplet    0      -73.267607443241  +2.000000  added
  -------------------------------------------------------

  ==> Davidson-Liu Solver <==

    --------------------------------------------------------
    Print level                                      Default
    Energy convergence threshold                   1.000e-10
    Residual convergence threshold                 1.000e-08
    Schmidt orthogonality threshold                1.000e-12
    Schmidt discard threshold                      1.000e-07
    Size of the space                                    400
    Number of roots                                        1
    Maximum number of iterations                         100
    Collapse subspace size                                 2
    Maximum subspace size                                 10
    --------------------------------------------------------

  Davidson-Liu solver: adding 1 guess vectors
  Iteration     Average Energy            max(∆E)            max(Residual)  Vectors
  ---------------------------------------------------------------------------------
       0      -45.093622031719       45.093622031719        0.015009893807      1
       1      -45.093762665210        0.000140633492        0.001923793535      2
       2      -45.093765783477        0.000003118267        0.000225340220      3
       3      -45.093765818660        0.000000035183        0.000026398236      4
       4      -45.093765819289        0.000000000629        0.000004556055      5
       5      -45.093765819313        0.000000000024        0.000000861867      6
       6      -45.093765819314        0.000000000000        0.000000089207      7
       7      -45.093765819314        0.000000000000        0.000000010000      8
  ---------------------------------------------------------------------------------
  Davidson-Liu procedure took  0.020361 s

  Done diagonalizing Hamiltonian, 2.525e-02 seconds.

  ==> Computing 1 Coupling Lists <==

  (N-1) a lists size counts
      Size      Count
         4        300
        α          6.511e-04 seconds
        β          6.147e-04 seconds
  Time spent building 1-rdm: 4.840e-04 seconds

  ==> CI Vectors & Occupation Number for Triplet (Ms = 0)  <==

  Important determinants with coefficients |C| >= 5.000e-02

  ---- Root No. 0 ----

          A    Coefficients
    -----------------------
     22ba00    0.7070446237
     22ab00   -0.7070446237
    -----------------------

    Occupation Numbers:
        1A    1.99987424    2A    1.99986251    3A    1.00000018    4A    1.00000000
        5A    0.00013174    6A    0.00013133

    Total Energy:  -38.949280004737737

  ==> Energy Summary <==

    Multi.(2ms)  Irrep.  No.               Energy      <S^2>
    --------------------------------------------------------
       3  (  0)     A     0      -38.949280004738   2.000000
    --------------------------------------------------------

  ==> Computing 1 Coupling Lists <==

  (N-1) a lists size counts
      Size      Count
         4        300
        α          6.518e-04 seconds
        β          6.069e-04 seconds
  Time spent building 1-rdm: 4.865e-04 seconds

  ==> Computing 2 Coupling Lists <==

  (N-2) aa lists size counts
      Size      Count
        10        120
        αα         5.867e-04 seconds
  (N-2) ab lists size counts
      Size      Count
        16        225
        αβ         1.529e-03 seconds
        ββ         5.685e-04 seconds
  Time spent building 2-rdm: 2.477e-03 seconds
 sydong:  unsymmetrize 2RDM


  ==> MCSCF Iterations <==

                      Energy CI                    Energy Orbital
           ------------------------------  ------------------------------
    Iter.        Total Energy       Delta        Total Energy       Delta  Orb. Grad.  Micro
    ----------------------------------------------------------------------------------------
 sydong:  unsymmetrize 2RDM

  Integrals are about to be updated.
  Frozen-core energy         -34.318471226098758 a.u.
  Timing for frozen one-body operator:                        0.001 s.
  Resorting integrals after freezing core.
  Timing for freezing core and virtual orbitals:              0.329 s.
  Integrals update took     1.170 s.
  L-BFGS Warning: Skip this vector due to negative rho
  Integrals are about to be updated.
  Frozen-core energy         -34.318471226098758 a.u.
  Timing for frozen one-body operator:                        0.001 s.
  Resorting integrals after freezing core.
  Timing for freezing core and virtual orbitals:              0.335 s.
  Integrals update took     1.084 s.
  L-BFGS Warning: Skip this vector due to negative rho
  Integrals are about to be updated.
  Frozen-core energy         -34.318471226098758 a.u.
  Timing for frozen one-body operator:                        0.001 s.
  Resorting integrals after freezing core.
  Timing for freezing core and virtual orbitals:              0.328 s.
  Integrals update took     1.109 s.
  L-BFGS Warning: Skip this vector due to negative rho
  Integrals are about to be updated.
  Frozen-core energy         -34.318471226098758 a.u.
  Timing for frozen one-body operator:                        0.001 s.
  Resorting integrals after freezing core.
  Timing for freezing core and virtual orbitals:              0.328 s.
  Integrals update took     1.084 s.
       1     -38.949280004738 -3.8949e+01    -38.953572100941 -3.8954e+01  4.7023e-04    4/N

  ==> General Determinant-Based CI Solver <==

  Number of active orbitals: 6
  Number of active alpha electrons: 3
  Number of active beta electrons: 3

  ==> Diagonalizing Hamiltonian Triplet (Ms = 0)  <==


  Spin-adaptation of the initial guess based on minimum spin-complete subset
  Initial guess determinants do not form a spin-complete set. 1 determinant(s) missing

  Guess determinants after screening: 49

  ==> Initial Guess <==

  Initial guess determinants:         49

  Classification of the initial guess solutions

  Number   2S+1   Selected
  ------------------------
    23       1        
    23       3       *
     3       5        
  ------------------------

    Spin    Root           Energy        <S^2>    Status
  -------------------------------------------------------
   triplet    0      -73.271335257142  +2.000000  added
  -------------------------------------------------------

  ==> Davidson-Liu Solver <==

    --------------------------------------------------------
    Print level                                      Default
    Energy convergence threshold                   1.000e-10
    Residual convergence threshold                 1.000e-08
    Schmidt orthogonality threshold                1.000e-12
    Schmidt discard threshold                      1.000e-07
    Size of the space                                    400
    Number of roots                                        1
    Maximum number of iterations                         100
    Collapse subspace size                                 2
    Maximum subspace size                                 10
    --------------------------------------------------------

  Davidson-Liu solver: adding 1 guess vectors
  Iteration     Average Energy            max(∆E)            max(Residual)  Vectors
  ---------------------------------------------------------------------------------
       0      -45.097349845620       45.097349845620        0.216482472669      1
       1      -45.122620134195        0.025270288575        0.034213797623      2
       2      -45.123151319778        0.000531185584        0.003923434983      3
       3      -45.123159289939        0.000007970161        0.000848518434      4
       4      -45.123159692726        0.000000402787        0.000139275061      5
       5      -45.123159704441        0.000000011715        0.000020596599      6
       6      -45.123159704718        0.000000000277        0.000003265162      7
       7      -45.123159704725        0.000000000007        0.000000483297      8
       8      -45.123159704725        0.000000000000        0.000000074917      9
       9      -45.123159704725        0.000000000000        0.000000010903     10
      10      -45.123159704725        0.000000000000        0.000000002349      3
  ---------------------------------------------------------------------------------

  Done diagonalizing Hamiltonian, 3.123e-02 seconds.

  ==> Computing 1 Coupling Lists <==

  (N-1) a lists size counts
      Size      Count
         4        300
        α          6.636e-04 seconds
        β          6.153e-04 seconds
  Time spent building 1-rdm: 4.874e-04 seconds

  ==> Computing 1 Coupling Lists <==

  (N-1) a lists size counts
      Size      Count
         4        300
        α          6.597e-04 seconds
        β          6.099e-04 seconds
  Time spent building 1-rdm: 4.811e-04 seconds

  ==> Computing 2 Coupling Lists <==

  (N-2) aa lists size counts
      Size      Count
        10        120
        αα         5.977e-04 seconds
  (N-2) ab lists size counts
      Size      Count
        16        225
        αβ         1.541e-03 seconds
        ββ         5.695e-04 seconds
  Time spent building 2-rdm: 2.474e-03 seconds
 sydong:  unsymmetrize 2RDM

  Integrals are about to be updated.
  Frozen-core energy         -34.318471226098758 a.u.
  Timing for frozen one-body operator:                        0.001 s.
  Resorting integrals after freezing core.
  Timing for freezing core and virtual orbitals:              0.329 s.
  Integrals update took     1.078 s.
  Integrals are about to be updated.
  Frozen-core energy         -34.318471226098758 a.u.
  Timing for frozen one-body operator:                        0.001 s.
  Resorting integrals after freezing core.
  Timing for freezing core and virtual orbitals:              0.328 s.
  Integrals update took     1.104 s.
  Integrals are about to be updated.
  Frozen-core energy         -34.318471226098758 a.u.
  Timing for frozen one-body operator:                        0.001 s.
  Resorting integrals after freezing core.
  Timing for freezing core and virtual orbitals:              0.328 s.
  Integrals update took     1.088 s.
  Integrals are about to be updated.
  Frozen-core energy         -34.318471226098758 a.u.
  Timing for frozen one-body operator:                        0.001 s.
  Resorting integrals after freezing core.
  Timing for freezing core and virtual orbitals:              0.329 s.
  Integrals update took     1.074 s.
       2     -38.978673890149 -2.9394e-02    -38.984954249849 -3.1382e-02  1.0114e-03    4/N

  ==> General Determinant-Based CI Solver <==

  Number of active orbitals: 6
  Number of active alpha electrons: 3
  Number of active beta electrons: 3

  ==> Diagonalizing Hamiltonian Triplet (Ms = 0)  <==


  Spin-adaptation of the initial guess based on minimum spin-complete subset
  Initial guess determinants do not form a spin-complete set. 1 determinant(s) missing

  Guess determinants after screening: 49

  ==> Initial Guess <==

  Initial guess determinants:         49

  Classification of the initial guess solutions

  Number   2S+1   Selected
  ------------------------
    23       1        
    23       3       *
     3       5        
  ------------------------

    Spin    Root           Energy        <S^2>    Status
  -------------------------------------------------------
   triplet    0      -73.271963487003  +2.000000  added
  -------------------------------------------------------

  ==> Davidson-Liu Solver <==

    --------------------------------------------------------
    Print level                                      Default
    Energy convergence threshold                   1.000e-10
    Residual convergence threshold                 1.000e-08
    Schmidt orthogonality threshold                1.000e-12
    Schmidt discard threshold                      1.000e-07
    Size of the space                                    400
    Number of roots                                        1
    Maximum number of iterations                         100
    Collapse subspace size                                 2
    Maximum subspace size                                 10
    --------------------------------------------------------

  Davidson-Liu solver: adding 1 guess vectors
  Iteration     Average Energy            max(∆E)            max(Residual)  Vectors
  ---------------------------------------------------------------------------------
       0      -45.097978075480       45.097978075480        0.250171550426      1
       1      -45.129707118588        0.031729043108        0.042517330680      2
       2      -45.130420741765        0.000713623176        0.005211198621      3
       3      -45.130433547187        0.000012805422        0.001174819444      4
       4      -45.130434236952        0.000000689765        0.000208576488      5
       5      -45.130434261485        0.000000024533        0.000039293421      6
       6      -45.130434262404        0.000000000919        0.000007195464      7
       7      -45.130434262429        0.000000000025        0.000000780410      8
       8      -45.130434262430        0.000000000000        0.000000147379      9
       9      -45.130434262430        0.000000000000        0.000000021197     10
      10      -45.130434262430        0.000000000000        0.000000003950      3
  ---------------------------------------------------------------------------------

  Done diagonalizing Hamiltonian, 3.112e-02 seconds.

  ==> Computing 1 Coupling Lists <==

  (N-1) a lists size counts
      Size      Count
         4        300
        α          6.791e-04 seconds
        β          6.085e-04 seconds
  Time spent building 1-rdm: 4.857e-04 seconds

  ==> Computing 1 Coupling Lists <==

  (N-1) a lists size counts
      Size      Count
         4        300
        α          6.755e-04 seconds
        β          6.078e-04 seconds
  Time spent building 1-rdm: 4.827e-04 seconds

  ==> Computing 2 Coupling Lists <==

  (N-2) aa lists size counts
      Size      Count
        10        120
        αα         5.914e-04 seconds
  (N-2) ab lists size counts
      Size      Count
        16        225
        αβ         1.536e-03 seconds
        ββ         5.786e-04 seconds
  Time spent building 2-rdm: 2.468e-03 seconds
 sydong:  unsymmetrize 2RDM

  Integrals are about to be updated.
  Frozen-core energy         -34.318471226098758 a.u.
  Timing for frozen one-body operator:                        0.001 s.
  Resorting integrals after freezing core.
  Timing for freezing core and virtual orbitals:              0.329 s.
  Integrals update took     1.092 s.
  Integrals are about to be updated.
  Frozen-core energy         -34.318471226098758 a.u.
  Timing for frozen one-body operator:                        0.001 s.
  Resorting integrals after freezing core.
  Timing for freezing core and virtual orbitals:              0.343 s.
  Integrals update took     1.077 s.
  Integrals are about to be updated.
  Frozen-core energy         -34.318471226098758 a.u.
  Timing for frozen one-body operator:                        0.001 s.
  Resorting integrals after freezing core.
  Timing for freezing core and virtual orbitals:              0.330 s.
  Integrals update took     1.082 s.
  Integrals are about to be updated.
  Frozen-core energy         -34.318471226098758 a.u.
  Timing for frozen one-body operator:                        0.001 s.
  Resorting integrals after freezing core.
  Timing for freezing core and virtual orbitals:              0.329 s.
  Integrals update took     1.065 s.
       3     -38.985948447854 -7.2746e-03    -38.986172468406 -1.2182e-03  4.8884e-04    4/N

  ==> General Determinant-Based CI Solver <==

  Number of active orbitals: 6
  Number of active alpha electrons: 3
  Number of active beta electrons: 3

  ==> Diagonalizing Hamiltonian Triplet (Ms = 0)  <==


  Spin-adaptation of the initial guess based on minimum spin-complete subset
  Initial guess determinants do not form a spin-complete set. 1 determinant(s) missing

  Guess determinants after screening: 49

  ==> Initial Guess <==

  Initial guess determinants:         49

  Classification of the initial guess solutions

  Number   2S+1   Selected
  ------------------------
    23       1        
    23       3       *
     3       5        
  ------------------------

    Spin    Root           Energy        <S^2>    Status
  -------------------------------------------------------
   triplet    0      -73.272226884815  +2.000000  added
  -------------------------------------------------------

  ==> Davidson-Liu Solver <==

    --------------------------------------------------------
    Print level                                      Default
    Energy convergence threshold                   1.000e-10
    Residual convergence threshold                 1.000e-08
    Schmidt orthogonality threshold                1.000e-12
    Schmidt discard threshold                      1.000e-07
    Size of the space                                    400
    Number of roots                                        1
    Maximum number of iterations                         100
    Collapse subspace size                                 2
    Maximum subspace size                                 10
    --------------------------------------------------------

  Davidson-Liu solver: adding 1 guess vectors
  Iteration     Average Energy            max(∆E)            max(Residual)  Vectors
  ---------------------------------------------------------------------------------
       0      -45.098241473293       45.098241473293        0.247840847157      1
       1      -45.130000060980        0.031758587687        0.042162983885      2
       2      -45.130710432076        0.000710371096        0.005445092834      3
       3      -45.130724362140        0.000013930064        0.001235017089      4
       4      -45.130725121289        0.000000759149        0.000216725367      5
       5      -45.130725147548        0.000000026259        0.000041616537      6
       6      -45.130725148579        0.000000001031        0.000008044757      7
       7      -45.130725148612        0.000000000034        0.000000894774      8
       8      -45.130725148613        0.000000000000        0.000000147176      9
       9      -45.130725148613        0.000000000000        0.000000020404     10
      10      -45.130725148613        0.000000000000        0.000000004151      3
  ---------------------------------------------------------------------------------

  Done diagonalizing Hamiltonian, 3.117e-02 seconds.

  ==> Computing 1 Coupling Lists <==

  (N-1) a lists size counts
      Size      Count
         4        300
        α          6.837e-04 seconds
        β          6.228e-04 seconds
  Time spent building 1-rdm: 4.877e-04 seconds

  ==> Computing 1 Coupling Lists <==

  (N-1) a lists size counts
      Size      Count
         4        300
        α          6.670e-04 seconds
        β          6.078e-04 seconds
  Time spent building 1-rdm: 4.854e-04 seconds

  ==> Computing 2 Coupling Lists <==

  (N-2) aa lists size counts
      Size      Count
        10        120
        αα         5.978e-04 seconds
  (N-2) ab lists size counts
      Size      Count
        16        225
        αβ         1.541e-03 seconds
        ββ         5.796e-04 seconds
  Time spent building 2-rdm: 2.500e-03 seconds
 sydong:  unsymmetrize 2RDM

  Integrals are about to be updated.
  Frozen-core energy         -34.318471226098758 a.u.
  Timing for frozen one-body operator:                        0.001 s.
  Resorting integrals after freezing core.
  Timing for freezing core and virtual orbitals:              0.340 s.
  Integrals update took     1.088 s.
  Integrals are about to be updated.
  Frozen-core energy         -34.318471226098758 a.u.
  Timing for frozen one-body operator:                        0.001 s.
  Resorting integrals after freezing core.
  Timing for freezing core and virtual orbitals:              0.329 s.
  Integrals update took     1.073 s.
  Integrals are about to be updated.
  Frozen-core energy         -34.318471226098758 a.u.
  Timing for frozen one-body operator:                        0.001 s.
  Resorting integrals after freezing core.
  Timing for freezing core and virtual orbitals:              0.329 s.
  Integrals update took     1.071 s.
  Integrals are about to be updated.
  Frozen-core energy         -34.318471226098758 a.u.
  Timing for frozen one-body operator:                        0.001 s.
  Resorting integrals after freezing core.
  Timing for freezing core and virtual orbitals:              0.329 s.
  Integrals update took     1.078 s.
       4     -38.986239334037 -2.9089e-04    -38.986259674518 -8.7206e-05  4.9673e-05    4/N

  ==> General Determinant-Based CI Solver <==

  Number of active orbitals: 6
  Number of active alpha electrons: 3
  Number of active beta electrons: 3

  ==> Diagonalizing Hamiltonian Triplet (Ms = 0)  <==


  Spin-adaptation of the initial guess based on minimum spin-complete subset
  Initial guess determinants do not form a spin-complete set. 1 determinant(s) missing

  Guess determinants after screening: 49

  ==> Initial Guess <==

  Initial guess determinants:         49

  Classification of the initial guess solutions

  Number   2S+1   Selected
  ------------------------
    23       1        
    23       3       *
     3       5        
  ------------------------

    Spin    Root           Energy        <S^2>    Status
  -------------------------------------------------------
   triplet    0      -73.272348975987  +2.000000  added
  -------------------------------------------------------

  ==> Davidson-Liu Solver <==

    --------------------------------------------------------
    Print level                                      Default
    Energy convergence threshold                   1.000e-10
    Residual convergence threshold                 1.000e-08
    Schmidt orthogonality threshold                1.000e-12
    Schmidt discard threshold                      1.000e-07
    Size of the space                                    400
    Number of roots                                        1
    Maximum number of iterations                         100
    Collapse subspace size                                 2
    Maximum subspace size                                 10
    --------------------------------------------------------

  Davidson-Liu solver: adding 1 guess vectors
  Iteration     Average Energy            max(∆E)            max(Residual)  Vectors
  ---------------------------------------------------------------------------------
       0      -45.098363564464       45.098363564464        0.246764479675      1
       1      -45.130029621840        0.031666057377        0.041987634351      2
       2      -45.130737186084        0.000707564244        0.005542513156      3
       3      -45.130751595054        0.000014408970        0.001245973330      4
       4      -45.130752369326        0.000000774271        0.000218447786      5
       5      -45.130752395781        0.000000026456        0.000042168658      6
       6      -45.130752396842        0.000000001061        0.000008248972      7
       7      -45.130752396878        0.000000000036        0.000000911775      8
       8      -45.130752396879        0.000000000000        0.000000142981      9
       9      -45.130752396879        0.000000000000        0.000000019662     10
      10      -45.130752396879        0.000000000000        0.000000004036      3
  ---------------------------------------------------------------------------------

  Done diagonalizing Hamiltonian, 3.116e-02 seconds.

  ==> Computing 1 Coupling Lists <==

  (N-1) a lists size counts
      Size      Count
         4        300
        α          6.559e-04 seconds
        β          6.069e-04 seconds
  Time spent building 1-rdm: 4.864e-04 seconds

  ==> Computing 1 Coupling Lists <==

  (N-1) a lists size counts
      Size      Count
         4        300
        α          6.630e-04 seconds
        β          6.325e-04 seconds
  Time spent building 1-rdm: 4.813e-04 seconds

  ==> Computing 2 Coupling Lists <==

  (N-2) aa lists size counts
      Size      Count
        10        120
        αα         5.885e-04 seconds
  (N-2) ab lists size counts
      Size      Count
        16        225
        αβ         1.528e-03 seconds
        ββ         5.756e-04 seconds
  Time spent building 2-rdm: 2.472e-03 seconds
 sydong:  unsymmetrize 2RDM

  Integrals are about to be updated.
  Frozen-core energy         -34.318471226098758 a.u.
  Timing for frozen one-body operator:                        0.001 s.
  Resorting integrals after freezing core.
  Timing for freezing core and virtual orbitals:              0.329 s.
  Integrals update took     1.094 s.
  Integrals are about to be updated.
  Frozen-core energy         -34.318471226098758 a.u.
  Timing for frozen one-body operator:                        0.001 s.
  Resorting integrals after freezing core.
  Timing for freezing core and virtual orbitals:              0.329 s.
  Integrals update took     1.063 s.
  Integrals are about to be updated.
  Frozen-core energy         -34.318471226098758 a.u.
  Timing for frozen one-body operator:                        0.001 s.
  Resorting integrals after freezing core.
  Timing for freezing core and virtual orbitals:              0.344 s.
  Integrals update took     1.082 s.
  Integrals are about to be updated.
  Frozen-core energy         -34.318471226098758 a.u.
  Timing for frozen one-body operator:                        0.001 s.
  Resorting integrals after freezing core.
  Timing for freezing core and virtual orbitals:              0.329 s.
  Integrals update took     1.076 s.
       5     -38.986266582303 -2.7248e-05    -38.986268870666 -9.1961e-06  1.1681e-05    4/N

  ==> General Determinant-Based CI Solver <==

  Number of active orbitals: 6
  Number of active alpha electrons: 3
  Number of active beta electrons: 3

  ==> Diagonalizing Hamiltonian Triplet (Ms = 0)  <==


  Spin-adaptation of the initial guess based on minimum spin-complete subset
  Initial guess determinants do not form a spin-complete set. 1 determinant(s) missing

  Guess determinants after screening: 49

  ==> Initial Guess <==

  Initial guess determinants:         49

  Classification of the initial guess solutions

  Number   2S+1   Selected
  ------------------------
    23       1        
    23       3       *
     3       5        
  ------------------------

    Spin    Root           Energy        <S^2>    Status
  -------------------------------------------------------
   triplet    0      -73.272394772372  +2.000000  added
  -------------------------------------------------------

  ==> Davidson-Liu Solver <==

    --------------------------------------------------------
    Print level                                      Default
    Energy convergence threshold                   1.000e-10
    Residual convergence threshold                 1.000e-08
    Schmidt orthogonality threshold                1.000e-12
    Schmidt discard threshold                      1.000e-07
    Size of the space                                    400
    Number of roots                                        1
    Maximum number of iterations                         100
    Collapse subspace size                                 2
    Maximum subspace size                                 10
    --------------------------------------------------------

  Davidson-Liu solver: adding 1 guess vectors
  Iteration     Average Energy            max(∆E)            max(Residual)  Vectors
  ---------------------------------------------------------------------------------
       0      -45.098409360849       45.098409360849        0.246389919116      1
       1      -45.130033804525        0.031624443676        0.041922927679      2
       2      -45.130740119485        0.000706314959        0.005574857780      3
       3      -45.130754688709        0.000014569225        0.001248427918      4
       4      -45.130755466554        0.000000777845        0.000218829782      5
       5      -45.130755493011        0.000000026456        0.000042264761      6
       6      -45.130755494078        0.000000001067        0.000008292995      7
       7      -45.130755494114        0.000000000037        0.000000914592      8
       8      -45.130755494115        0.000000000000        0.000000141211      9
       9      -45.130755494115        0.000000000000        0.000000019335     10
      10      -45.130755494115        0.000000000000        0.000000003962      3
  ---------------------------------------------------------------------------------

  Done diagonalizing Hamiltonian, 3.114e-02 seconds.

  ==> Computing 1 Coupling Lists <==

  (N-1) a lists size counts
      Size      Count
         4        300
        α          6.819e-04 seconds
        β          6.147e-04 seconds
  Time spent building 1-rdm: 4.878e-04 seconds

  ==> Computing 1 Coupling Lists <==

  (N-1) a lists size counts
      Size      Count
         4        300
        α          6.612e-04 seconds
        β          6.168e-04 seconds
  Time spent building 1-rdm: 4.859e-04 seconds

  ==> Computing 2 Coupling Lists <==

  (N-2) aa lists size counts
      Size      Count
        10        120
        αα         5.856e-04 seconds
  (N-2) ab lists size counts
      Size      Count
        16        225
        αβ         1.541e-03 seconds
        ββ         5.719e-04 seconds
  Time spent building 2-rdm: 2.472e-03 seconds
 sydong:  unsymmetrize 2RDM

  Integrals are about to be updated.
  Frozen-core energy         -34.318471226098758 a.u.
  Timing for frozen one-body operator:                        0.001 s.
  Resorting integrals after freezing core.
  Timing for freezing core and virtual orbitals:              0.330 s.
  Integrals update took     1.065 s.
  Integrals are about to be updated.
  Frozen-core energy         -34.318471226098758 a.u.
  Timing for frozen one-body operator:                        0.001 s.
  Resorting integrals after freezing core.
  Timing for freezing core and virtual orbitals:              0.328 s.
  Integrals update took     1.068 s.
  Integrals are about to be updated.
  Frozen-core energy         -34.318471226098758 a.u.
  Timing for frozen one-body operator:                        0.001 s.
  Resorting integrals after freezing core.
  Timing for freezing core and virtual orbitals:              0.329 s.
  Integrals update took     1.060 s.
  Integrals are about to be updated.
  Frozen-core energy         -34.318471226098758 a.u.
  Timing for frozen one-body operator:                        0.001 s.
  Resorting integrals after freezing core.
  Timing for freezing core and virtual orbitals:              0.340 s.
  Integrals update took     1.073 s.
       6     -38.986269679539 -3.0972e-06    -38.986269954937 -1.0843e-06  3.5948e-06    4/N

  ==> General Determinant-Based CI Solver <==

  Number of active orbitals: 6
  Number of active alpha electrons: 3
  Number of active beta electrons: 3

  ==> Diagonalizing Hamiltonian Triplet (Ms = 0)  <==


  Spin-adaptation of the initial guess based on minimum spin-complete subset
  Initial guess determinants do not form a spin-complete set. 1 determinant(s) missing

  Guess determinants after screening: 49

  ==> Initial Guess <==

  Initial guess determinants:         49

  Classification of the initial guess solutions

  Number   2S+1   Selected
  ------------------------
    23       1        
    23       3       *
     3       5        
  ------------------------

    Spin    Root           Energy        <S^2>    Status
  -------------------------------------------------------
   triplet    0      -73.272411237993  +2.000000  added
  -------------------------------------------------------

  ==> Davidson-Liu Solver <==

    --------------------------------------------------------
    Print level                                      Default
    Energy convergence threshold                   1.000e-10
    Residual convergence threshold                 1.000e-08
    Schmidt orthogonality threshold                1.000e-12
    Schmidt discard threshold                      1.000e-07
    Size of the space                                    400
    Number of roots                                        1
    Maximum number of iterations                         100
    Collapse subspace size                                 2
    Maximum subspace size                                 10
    --------------------------------------------------------

  Davidson-Liu solver: adding 1 guess vectors
  Iteration     Average Energy            max(∆E)            max(Residual)  Vectors
  ---------------------------------------------------------------------------------
       0      -45.098425826470       45.098425826470        0.246263170209      1
       1      -45.130034624250        0.031608797780        0.041899854250      2
       2      -45.130740439619        0.000705815369        0.005585720241      3
       3      -45.130755062158        0.000014622538        0.001249067885      4
       4      -45.130755840938        0.000000778780        0.000218922850      5
       5      -45.130755867380        0.000000026443        0.000042279428      6
       6      -45.130755868448        0.000000001068        0.000008303624      7
       7      -45.130755868485        0.000000000037        0.000000915157      8
       8      -45.130755868486        0.000000000000        0.000000140552      9
       9      -45.130755868486        0.000000000000        0.000000019209     10
      10      -45.130755868486        0.000000000000        0.000000003930      3
  ---------------------------------------------------------------------------------

  Done diagonalizing Hamiltonian, 3.120e-02 seconds.

  ==> Computing 1 Coupling Lists <==

  (N-1) a lists size counts
      Size      Count
         4        300
        α          6.821e-04 seconds
        β          6.207e-04 seconds
  Time spent building 1-rdm: 4.839e-04 seconds

  ==> Computing 1 Coupling Lists <==

  (N-1) a lists size counts
      Size      Count
         4        300
        α          6.517e-04 seconds
        β          6.095e-04 seconds
  Time spent building 1-rdm: 4.864e-04 seconds

  ==> Computing 2 Coupling Lists <==

  (N-2) aa lists size counts
      Size      Count
        10        120
        αα         5.876e-04 seconds
  (N-2) ab lists size counts
      Size      Count
        16        225
        αβ         1.538e-03 seconds
        ββ         5.769e-04 seconds
  Time spent building 2-rdm: 2.484e-03 seconds
 sydong:  unsymmetrize 2RDM

  Integrals are about to be updated.
  Frozen-core energy         -34.318471226098758 a.u.
  Timing for frozen one-body operator:                        0.001 s.
  Resorting integrals after freezing core.
  Timing for freezing core and virtual orbitals:              0.329 s.
  Integrals update took     1.084 s.
  Integrals are about to be updated.
  Frozen-core energy         -34.318471226098758 a.u.
  Timing for frozen one-body operator:                        0.001 s.
  Resorting integrals after freezing core.
  Timing for freezing core and virtual orbitals:              0.329 s.
  Integrals update took     1.064 s.
  Integrals are about to be updated.
  Frozen-core energy         -34.318471226098758 a.u.
  Timing for frozen one-body operator:                        0.001 s.
  Resorting integrals after freezing core.
  Timing for freezing core and virtual orbitals:              0.333 s.
  Integrals update took     1.072 s.
  Integrals are about to be updated.
  Frozen-core energy         -34.318471226098758 a.u.
  Timing for frozen one-body operator:                        0.001 s.
  Resorting integrals after freezing core.
  Timing for freezing core and virtual orbitals:              0.329 s.
  Integrals update took     1.081 s.
       7     -38.986270053910 -3.7437e-07    -38.986270087943 -1.3301e-07  1.2136e-06    4/N

  ==> General Determinant-Based CI Solver <==

  Number of active orbitals: 6
  Number of active alpha electrons: 3
  Number of active beta electrons: 3

  ==> Diagonalizing Hamiltonian Triplet (Ms = 0)  <==


  Spin-adaptation of the initial guess based on minimum spin-complete subset
  Initial guess determinants do not form a spin-complete set. 1 determinant(s) missing

  Guess determinants after screening: 49

  ==> Initial Guess <==

  Initial guess determinants:         49

  Classification of the initial guess solutions

  Number   2S+1   Selected
  ------------------------
    23       1        
    23       3       *
     3       5        
  ------------------------

    Spin    Root           Energy        <S^2>    Status
  -------------------------------------------------------
   triplet    0      -73.272417091187  +2.000000  added
  -------------------------------------------------------

  ==> Davidson-Liu Solver <==

    --------------------------------------------------------
    Print level                                      Default
    Energy convergence threshold                   1.000e-10
    Residual convergence threshold                 1.000e-08
    Schmidt orthogonality threshold                1.000e-12
    Schmidt discard threshold                      1.000e-07
    Size of the space                                    400
    Number of roots                                        1
    Maximum number of iterations                         100
    Collapse subspace size                                 2
    Maximum subspace size                                 10
    --------------------------------------------------------

  Davidson-Liu solver: adding 1 guess vectors
  Iteration     Average Energy            max(∆E)            max(Residual)  Vectors
  ---------------------------------------------------------------------------------
       0      -45.098431679664       45.098431679664        0.246220069647      1
       1      -45.130034841968        0.031603162304        0.041891693954      2
       2      -45.130740467724        0.000705625756        0.005589427023      3
       3      -45.130755108253        0.000014640529        0.001249251814      4
       4      -45.130755887297        0.000000779044        0.000218947422      5
       5      -45.130755913732        0.000000026435        0.000042280749      6
       6      -45.130755914801        0.000000001068        0.000008306436      7
       7      -45.130755914837        0.000000000037        0.000000915279      8
       8      -45.130755914838        0.000000000000        0.000000140313      9
       9      -45.130755914838        0.000000000000        0.000000019161     10
      10      -45.130755914838        0.000000000000        0.000000003917      3
  ---------------------------------------------------------------------------------

  Done diagonalizing Hamiltonian, 3.114e-02 seconds.

  ==> Computing 1 Coupling Lists <==

  (N-1) a lists size counts
      Size      Count
         4        300
        α          6.672e-04 seconds
        β          6.169e-04 seconds
  Time spent building 1-rdm: 4.853e-04 seconds

  ==> Computing 1 Coupling Lists <==

  (N-1) a lists size counts
      Size      Count
         4        300
        α          6.636e-04 seconds
        β          6.275e-04 seconds
  Time spent building 1-rdm: 4.846e-04 seconds

  ==> Computing 2 Coupling Lists <==

  (N-2) aa lists size counts
      Size      Count
        10        120
        αα         5.880e-04 seconds
  (N-2) ab lists size counts
      Size      Count
        16        225
        αβ         1.544e-03 seconds
        ββ         5.845e-04 seconds
  Time spent building 2-rdm: 2.469e-03 seconds
 sydong:  unsymmetrize 2RDM

  Integrals are about to be updated.
  Frozen-core energy         -34.318471226098758 a.u.
  Timing for frozen one-body operator:                        0.001 s.
  Resorting integrals after freezing core.
  Timing for freezing core and virtual orbitals:              0.329 s.
  Integrals update took     1.062 s.
  Integrals are about to be updated.
  Frozen-core energy         -34.318471226098758 a.u.
  Timing for frozen one-body operator:                        0.001 s.
  Resorting integrals after freezing core.
  Timing for freezing core and virtual orbitals:              0.328 s.
  Integrals update took     1.055 s.
  Integrals are about to be updated.
  Frozen-core energy         -34.318471226098758 a.u.
  Timing for frozen one-body operator:                        0.001 s.
  Resorting integrals after freezing core.
  Timing for freezing core and virtual orbitals:              0.329 s.
  Integrals update took     1.089 s.
  Integrals are about to be updated.
  Frozen-core energy         -34.318471226098758 a.u.
  Timing for frozen one-body operator:                        0.001 s.
  Resorting integrals after freezing core.
  Timing for freezing core and virtual orbitals:              0.329 s.
  Integrals update took     1.060 s.
       8     -38.986270100262 -4.6352e-08    -38.986270104513 -1.6570e-08  4.2571e-07    4/N

  ==> General Determinant-Based CI Solver <==

  Number of active orbitals: 6
  Number of active alpha electrons: 3
  Number of active beta electrons: 3

  ==> Diagonalizing Hamiltonian Triplet (Ms = 0)  <==


  Spin-adaptation of the initial guess based on minimum spin-complete subset
  Initial guess determinants do not form a spin-complete set. 1 determinant(s) missing

  Guess determinants after screening: 49

  ==> Initial Guess <==

  Initial guess determinants:         49

  Classification of the initial guess solutions

  Number   2S+1   Selected
  ------------------------
    23       1        
    23       3       *
     3       5        
  ------------------------

    Spin    Root           Energy        <S^2>    Status
  -------------------------------------------------------
   triplet    0      -73.272419164704  +2.000000  added
  -------------------------------------------------------

  ==> Davidson-Liu Solver <==

    --------------------------------------------------------
    Print level                                      Default
    Energy convergence threshold                   1.000e-10
    Residual convergence threshold                 1.000e-08
    Schmidt orthogonality threshold                1.000e-12
    Schmidt discard threshold                      1.000e-07
    Size of the space                                    400
    Number of roots                                        1
    Maximum number of iterations                         100
    Collapse subspace size                                 2
    Maximum subspace size                                 10
    --------------------------------------------------------

  Davidson-Liu solver: adding 1 guess vectors
  Iteration     Average Energy            max(∆E)            max(Residual)  Vectors
  ---------------------------------------------------------------------------------
       0      -45.098433753181       45.098433753181        0.246205268336      1
       1      -45.130034911481        0.031601158300        0.041888812817      2
       2      -45.130740467289        0.000705555808        0.005590706032      3
       3      -45.130755113972        0.000014646683        0.001249308196      4
       4      -45.130755893094        0.000000779123        0.000218954339      5
       5      -45.130755919526        0.000000026432        0.000042280398      6
       6      -45.130755920595        0.000000001068        0.000008307234      7
       7      -45.130755920631        0.000000000037        0.000000915306      8
       8      -45.130755920632        0.000000000000        0.000000140226      9
       9      -45.130755920632        0.000000000000        0.000000019144     10
      10      -45.130755920632        0.000000000000        0.000000003913      3
  ---------------------------------------------------------------------------------

  Done diagonalizing Hamiltonian, 3.115e-02 seconds.

  ==> Computing 1 Coupling Lists <==

  (N-1) a lists size counts
      Size      Count
         4        300
        α          6.756e-04 seconds
        β          6.107e-04 seconds
  Time spent building 1-rdm: 4.833e-04 seconds

  ==> Computing 1 Coupling Lists <==

  (N-1) a lists size counts
      Size      Count
         4        300
        α          6.537e-04 seconds
        β          6.277e-04 seconds
  Time spent building 1-rdm: 4.828e-04 seconds

  ==> Computing 2 Coupling Lists <==

  (N-2) aa lists size counts
      Size      Count
        10        120
        αα         5.864e-04 seconds
  (N-2) ab lists size counts
      Size      Count
        16        225
        αβ         1.541e-03 seconds
        ββ         5.789e-04 seconds
  Time spent building 2-rdm: 2.469e-03 seconds
 sydong:  unsymmetrize 2RDM

  Integrals are about to be updated.
  Frozen-core energy         -34.318471226098758 a.u.
  Timing for frozen one-body operator:                        0.001 s.
  Resorting integrals after freezing core.
  Timing for freezing core and virtual orbitals:              0.329 s.
  Integrals update took     1.058 s.
  Integrals are about to be updated.
  Frozen-core energy         -34.318471226098758 a.u.
  Timing for frozen one-body operator:                        0.001 s.
  Resorting integrals after freezing core.
  Timing for freezing core and virtual orbitals:              0.329 s.
  Integrals update took     1.061 s.
  Integrals are about to be updated.
  Frozen-core energy         -34.318471226098758 a.u.
  Timing for frozen one-body operator:                        0.001 s.
  Resorting integrals after freezing core.
  Timing for freezing core and virtual orbitals:              0.329 s.
  Integrals update took     1.084 s.
       9     -38.986270106056 -5.7942e-09    -38.986270106587 -2.0741e-09  1.5156e-07    3/Y

  ==> General Determinant-Based CI Solver <==

  Number of active orbitals: 6
  Number of active alpha electrons: 3
  Number of active beta electrons: 3

  ==> Diagonalizing Hamiltonian Triplet (Ms = 0)  <==


  Spin-adaptation of the initial guess based on minimum spin-complete subset
  Initial guess determinants do not form a spin-complete set. 1 determinant(s) missing

  Guess determinants after screening: 49

  ==> Initial Guess <==

  Initial guess determinants:         49

  Classification of the initial guess solutions

  Number   2S+1   Selected
  ------------------------
    23       1        
    23       3       *
     3       5        
  ------------------------

    Spin    Root           Energy        <S^2>    Status
  -------------------------------------------------------
   triplet    0      -73.272419904156  +2.000000  added
  -------------------------------------------------------

  ==> Davidson-Liu Solver <==

    --------------------------------------------------------
    Print level                                      Default
    Energy convergence threshold                   1.000e-10
    Residual convergence threshold                 1.000e-08
    Schmidt orthogonality threshold                1.000e-12
    Schmidt discard threshold                      1.000e-07
    Size of the space                                    400
    Number of roots                                        1
    Maximum number of iterations                         100
    Collapse subspace size                                 2
    Maximum subspace size                                 10
    --------------------------------------------------------

  Davidson-Liu solver: adding 1 guess vectors
  Iteration     Average Energy            max(∆E)            max(Residual)  Vectors
  ---------------------------------------------------------------------------------
       0      -45.098434492634       45.098434492634        0.246199785257      1
       1      -45.130034932350        0.031600439716        0.041887806535      2
       2      -45.130740465809        0.000705533459        0.005591147420      3
       3      -45.130755114667        0.000014648858        0.001249328691      4
       4      -45.130755893821        0.000000779153        0.000218957147      5
       5      -45.130755920252        0.000000026431        0.000042280288      6
       6      -45.130755921320        0.000000001068        0.000008307496      7
       7      -45.130755921357        0.000000000037        0.000000915315      8
       8      -45.130755921357        0.000000000000        0.000000140196      9
       9      -45.130755921357        0.000000000000        0.000000019138     10
      10      -45.130755921357        0.000000000000        0.000000003911      3
  ---------------------------------------------------------------------------------

  Done diagonalizing Hamiltonian, 3.106e-02 seconds.

  ==> Computing 1 Coupling Lists <==

  (N-1) a lists size counts
      Size      Count
         4        300
        α          6.570e-04 seconds
        β          6.287e-04 seconds
  Time spent building 1-rdm: 4.829e-04 seconds

  ==> Computing 1 Coupling Lists <==

  (N-1) a lists size counts
      Size      Count
         4        300
        α          6.655e-04 seconds
        β          6.218e-04 seconds
  Time spent building 1-rdm: 4.957e-04 seconds

  ==> Computing 2 Coupling Lists <==

  (N-2) aa lists size counts
      Size      Count
        10        120
        αα         5.915e-04 seconds
  (N-2) ab lists size counts
      Size      Count
        16        225
        αβ         1.536e-03 seconds
        ββ         5.780e-04 seconds
  Time spent building 2-rdm: 2.478e-03 seconds
 sydong:  unsymmetrize 2RDM

  Integrals are about to be updated.
  Frozen-core energy         -34.318471226098758 a.u.
  Timing for frozen one-body operator:                        0.001 s.
  Resorting integrals after freezing core.
  Timing for freezing core and virtual orbitals:              0.329 s.
  Integrals update took     1.068 s.
  Integrals are about to be updated.
  Frozen-core energy         -34.318471226098758 a.u.
  Timing for frozen one-body operator:                        0.001 s.
  Resorting integrals after freezing core.
  Timing for freezing core and virtual orbitals:              0.328 s.
  Integrals update took     1.067 s.
      10     -38.986270106781 -7.2525e-10    -38.986270106848 -2.6115e-10  5.3310e-08    2/Y

  ==> General Determinant-Based CI Solver <==

  Number of active orbitals: 6
  Number of active alpha electrons: 3
  Number of active beta electrons: 3

  ==> Diagonalizing Hamiltonian Triplet (Ms = 0)  <==


  Spin-adaptation of the initial guess based on minimum spin-complete subset
  Initial guess determinants do not form a spin-complete set. 1 determinant(s) missing

  Guess determinants after screening: 49

  ==> Initial Guess <==

  Initial guess determinants:         49

  Classification of the initial guess solutions

  Number   2S+1   Selected
  ------------------------
    23       1        
    23       3       *
     3       5        
  ------------------------

    Spin    Root           Energy        <S^2>    Status
  -------------------------------------------------------
   triplet    0      -73.272420151955  +2.000000  added
  -------------------------------------------------------

  ==> Davidson-Liu Solver <==

    --------------------------------------------------------
    Print level                                      Default
    Energy convergence threshold                   1.000e-10
    Residual convergence threshold                 1.000e-08
    Schmidt orthogonality threshold                1.000e-12
    Schmidt discard threshold                      1.000e-07
    Size of the space                                    400
    Number of roots                                        1
    Maximum number of iterations                         100
    Collapse subspace size                                 2
    Maximum subspace size                                 10
    --------------------------------------------------------

  Davidson-Liu solver: adding 1 guess vectors
  Iteration     Average Energy            max(∆E)            max(Residual)  Vectors
  ---------------------------------------------------------------------------------
       0      -45.098434740432       45.098434740432        0.246198056781      1
       1      -45.130034940213        0.031600199781        0.041887464489      2
       2      -45.130740465175        0.000705524963        0.005591296784      3
       3      -45.130755114749        0.000014649573        0.001249334641      4
       4      -45.130755893910        0.000000779162        0.000218957815      5
       5      -45.130755920341        0.000000026430        0.000042280146      6
       6      -45.130755921409        0.000000001068        0.000008307566      7
       7      -45.130755921446        0.000000000037        0.000000915316      8
       8      -45.130755921446        0.000000000000        0.000000140185      9
       9      -45.130755921446        0.000000000000        0.000000019136     10
      10      -45.130755921446        0.000000000000        0.000000003910      3
  ---------------------------------------------------------------------------------

  Done diagonalizing Hamiltonian, 3.104e-02 seconds.

  ==> Computing 1 Coupling Lists <==

  (N-1) a lists size counts
      Size      Count
         4        300
        α          6.621e-04 seconds
        β          6.184e-04 seconds
  Time spent building 1-rdm: 4.871e-04 seconds

  ==> Computing 1 Coupling Lists <==

  (N-1) a lists size counts
      Size      Count
         4        300
        α          6.672e-04 seconds
        β          6.136e-04 seconds
  Time spent building 1-rdm: 4.862e-04 seconds

  ==> Computing 2 Coupling Lists <==

  (N-2) aa lists size counts
      Size      Count
        10        120
        αα         5.882e-04 seconds
  (N-2) ab lists size counts
      Size      Count
        16        225
        αβ         1.550e-03 seconds
        ββ         5.785e-04 seconds
  Time spent building 2-rdm: 2.463e-03 seconds
 sydong:  unsymmetrize 2RDM

  Integrals are about to be updated.
  Frozen-core energy         -34.318471226098758 a.u.
  Timing for frozen one-body operator:                        0.001 s.
  Resorting integrals after freezing core.
  Timing for freezing core and virtual orbitals:              0.330 s.
  Integrals update took     1.064 s.
      11     -38.986270106870 -8.9095e-11    -38.986270106879 -3.0496e-11  7.8995e-08    1/Y
    ----------------------------------------------------------------------------------------

  A miracle has come to pass: MCSCF iterations have converged!

  Performing final CI Calculation using converged orbitals

  ==> General Determinant-Based CI Solver <==

  Number of active orbitals: 6
  Number of active alpha electrons: 3
  Number of active beta electrons: 3
  Number of determinants (CAS): 400

  ==> Diagonalizing Hamiltonian Triplet (Ms = 0)  <==


  Davidson-Liu solver algorithm using SigmaVectorSparseList sigma algorithm

  Spin-adaptation of the initial guess based on minimum spin-complete subset
  Initial guess determinants do not form a spin-complete set. 1 determinant(s) missing

  Guess determinants after screening: 49

  ==> Initial Guess <==

  Initial guess determinants:         49

  Classification of the initial guess solutions

  Number   2S+1   Selected
  ------------------------
    23       1        
    23       3       *
     3       5        
  ------------------------

    Spin    Root           Energy        <S^2>    Status
  -------------------------------------------------------
   triplet    0      -73.272420205054  +2.000000  added
  -------------------------------------------------------

  ==> Davidson-Liu Solver <==

    --------------------------------------------------------
    Print level                                      Default
    Energy convergence threshold                   1.000e-10
    Residual convergence threshold                 1.000e-08
    Schmidt orthogonality threshold                1.000e-12
    Schmidt discard threshold                      1.000e-07
    Size of the space                                    400
    Number of roots                                        1
    Maximum number of iterations                         100
    Collapse subspace size                                 2
    Maximum subspace size                                 10
    --------------------------------------------------------

  Davidson-Liu solver: adding 1 guess vectors
  Iteration     Average Energy            max(∆E)            max(Residual)  Vectors
  ---------------------------------------------------------------------------------
       0      -45.098434793531       45.098434793531        0.246197723956      1
       1      -45.130034942248        0.031600148717        0.041887389410      2
       2      -45.130740465036        0.000705522788        0.005591329117      3
       3      -45.130755114757        0.000014649721        0.001249335628      4
       4      -45.130755893920        0.000000779163        0.000218957877      5
       5      -45.130755920350        0.000000026430        0.000042280092      6
       6      -45.130755921418        0.000000001068        0.000008307578      7
       7      -45.130755921455        0.000000000037        0.000000915316      8
       8      -45.130755921455        0.000000000000        0.000000140183      9
       9      -45.130755921455        0.000000000000        0.000000019135     10
      10      -45.130755921455        0.000000000000        0.000000003910      3
  ---------------------------------------------------------------------------------
  Davidson-Liu procedure took  0.026214 s

  Done diagonalizing Hamiltonian, 3.113e-02 seconds.

  ==> Computing 1 Coupling Lists <==

  (N-1) a lists size counts
      Size      Count
         4        300
        α          6.584e-04 seconds
        β          6.099e-04 seconds
  Time spent building 1-rdm: 4.916e-04 seconds

  ==> CI Vectors & Occupation Number for Triplet (Ms = 0)  <==

  Important determinants with coefficients |C| >= 5.000e-02

  ---- Root No. 0 ----

          A    Coefficients
    -----------------------
     22ab00   -0.6983312093
     22ba00    0.6983312093
    -----------------------

    Occupation Numbers:
        1A    1.98116426    2A    1.97811770    4A    1.00000000    3A    0.99952805
        5A    0.02465281    6A    0.01653718

    Total Energy:  -38.986270106879566

  ==> Energy Summary <==

    Multi.(2ms)  Irrep.  No.               Energy      <S^2>
    --------------------------------------------------------
       3  (  0)     A     0      -38.986270106880   2.000000
    --------------------------------------------------------

  ==> Computing 1 Coupling Lists <==

  (N-1) a lists size counts
      Size      Count
         4        300
        α          6.497e-04 seconds
        β          6.118e-04 seconds
  Time spent building 1-rdm: 4.848e-04 seconds

  ==> Computing 2 Coupling Lists <==

  (N-2) aa lists size counts
      Size      Count
        10        120
        αα         5.984e-04 seconds
  (N-2) ab lists size counts
      Size      Count
        16        225
        αβ         1.539e-03 seconds
        ββ         5.781e-04 seconds
  Time spent building 2-rdm: 2.536e-03 seconds

  ==> General Determinant-Based CI Solver <==

  Number of active orbitals: 6
  Number of active alpha electrons: 3
  Number of active beta electrons: 3
  Number of determinants (CAS): 400

  ==> Diagonalizing Hamiltonian Triplet (Ms = 0)  <==


  Davidson-Liu solver algorithm using SigmaVectorSparseList sigma algorithm

  Spin-adaptation of the initial guess based on minimum spin-complete subset
  Initial guess determinants do not form a spin-complete set. 1 determinant(s) missing

  Guess determinants after screening: 49

  ==> Initial Guess <==

  Initial guess determinants:         49

  Classification of the initial guess solutions

  Number   2S+1   Selected
  ------------------------
    23       1        
    23       3       *
     3       5        
  ------------------------

    Spin    Root           Energy        <S^2>    Status
  -------------------------------------------------------
   triplet    0      -73.272420205054  +2.000000  added
  -------------------------------------------------------

  ==> Davidson-Liu Solver <==

    --------------------------------------------------------
    Print level                                      Default
    Energy convergence threshold                   1.000e-10
    Residual convergence threshold                 1.000e-08
    Schmidt orthogonality threshold                1.000e-12
    Schmidt discard threshold                      1.000e-07
    Size of the space                                    400
    Number of roots                                        1
    Maximum number of iterations                         100
    Collapse subspace size                                 2
    Maximum subspace size                                 10
    --------------------------------------------------------

  Davidson-Liu solver: adding 1 guess vectors
  Iteration     Average Energy            max(∆E)            max(Residual)  Vectors
  ---------------------------------------------------------------------------------
       0      -45.098434793531       45.098434793531        0.246197723956      1
       1      -45.130034942248        0.031600148717        0.041887389410      2
       2      -45.130740465036        0.000705522788        0.005591329117      3
       3      -45.130755114757        0.000014649721        0.001249335628      4
       4      -45.130755893920        0.000000779163        0.000218957877      5
       5      -45.130755920350        0.000000026430        0.000042280092      6
       6      -45.130755921418        0.000000001068        0.000008307578      7
       7      -45.130755921455        0.000000000037        0.000000915316      8
       8      -45.130755921455        0.000000000000        0.000000140183      9
       9      -45.130755921455        0.000000000000        0.000000019135     10
      10      -45.130755921455        0.000000000000        0.000000003910      3
  ---------------------------------------------------------------------------------
  Davidson-Liu procedure took  0.025824 s

  Done diagonalizing Hamiltonian, 3.055e-02 seconds.

  ==> Computing 1 Coupling Lists <==

  (N-1) a lists size counts
      Size      Count
         4        300
        α          6.515e-04 seconds
        β          6.178e-04 seconds
  Time spent building 1-rdm: 4.837e-04 seconds

  ==> CI Vectors & Occupation Number for Triplet (Ms = 0)  <==

  Important determinants with coefficients |C| >= 5.000e-02

  ---- Root No. 0 ----

          A    Coefficients
    -----------------------
     22ab00   -0.6983312093
     22ba00    0.6983312093
    -----------------------

    Occupation Numbers:
        1A    1.98116426    2A    1.97811770    4A    1.00000000    3A    0.99952805
        5A    0.02465281    6A    0.01653718

    Total Energy:  -38.986270106879566

  ==> Energy Summary <==

    Multi.(2ms)  Irrep.  No.               Energy      <S^2>
    --------------------------------------------------------
       3  (  0)     A     0      -38.986270106880   2.000000
    --------------------------------------------------------

  ==> Computing 2 Coupling Lists <==

  (N-2) aa lists size counts
      Size      Count
        10        120
        αα         5.904e-04 seconds
  (N-2) ab lists size counts
      Size      Count
        16        225
        αβ         1.536e-03 seconds
        ββ         5.750e-04 seconds
  Time spent building 2-rdm: 2.259e-03 seconds

  ==> Computing 3 Coupling Lists <==

  (N-3) aaa lists size counts
      Size      Count
        20         20
        ααα        3.582e-04 seconds
  (N-3) aab lists size counts
      Size      Count
        40         90
        ααβ        1.842e-03 seconds
        αββ        1.631e-03 seconds
        βββ        3.409e-04 seconds
  Time spent building 3-rdm: 1.420e-02 seconds

  ==> Semicanonicalize Orbitals <==

    MIX INACTIVE ORBITALS         FALSE
    MIX GAS ACTIVE ORBITALS       FALSE
    FROZEN_DOCC                   CANONICAL
    FROZEN_UOCC                   CANONICAL
    GAS1                          CANONICAL
    RESTRICTED_DOCC               CANONICAL
    RESTRICTED_UOCC               CANONICAL

    Off-Diag. Elements       Max           2-Norm
    ------------------------------------------------
    FROZEN_DOCC          0.0000000000   0.0000000000
    GAS1                 0.0462017084   0.0659953999
    RESTRICTED_UOCC      0.3314263168   1.0811605877
    ------------------------------------------------

    Canonicalization test failed

  Warning: Cannot fix orbital phases (Ca) for CustomIntegrals.
  Integrals are about to be updated.
  Frozen-core energy         -34.318471226098758 a.u.
  Timing for frozen one-body operator:                        0.001 s.
  Resorting integrals after freezing core.
  Timing for freezing core and virtual orbitals:              0.314 s.
  Integrals update took     1.057 s.
  Orbital rotations on spin-dependent RDMs ...
    Transformed 1 RDMs.
    Transformed 2 RDMs.
    Transformed 3 RDMs.
  Timing for orbital canonicalization:                        1.984 s.

  ==> Multireference Driven Similarity Renormalization Group <==

    Computing Fock matrix and cleaning JK ........... Done
    Reading DSRG options ............................ Done
    Setting ambit MO space .......................... Done
    Preparing tensors for density cumulants ......... Done
    Filling Fock matrix from ForteIntegrals ......... Done

              ----------------------------------------------------
                    MR-DSRG Second-Order Perturbation Theory
                Chenyang Li, Kevin Hannon, Francesco Evangelista
              ----------------------------------------------------

    References:
      u-DSRG-MRPT2:    J. Chem. Theory Comput. 2015, 11, 2097.
      (pr-)DSRG-MRPT2: J. Chem. Phys. 2017, 146, 124132.

  ==> Calculation Information <==

    --------------------------------------------------------
    int_type                                         FCIDUMP
    source operator                                 STANDARD
    reference relaxation                                NONE
    state_type                                STATE-SPECIFIC
    form Hbar3                                         FALSE
    flow parameter                                 5.000e-01
    taylor expansion threshold                     1.000e-03
    intruder_tamp                                  1.000e-01
    ntamp                                                 15
    --------------------------------------------------------
  =>** Before self.dsrg_solver.compute_energy() **<=


  ==> Checking Semicanonical Orbitals <==

    Block             Fa Max         Fa Mean           Fb Max         Fb Mean
    -------------------------------------------------------------------------
    CORE        0.0000000000    0.0000000000     0.0000000000    0.0000000000
    VIRTUAL     0.0000000000    0.0000000000     0.0000000000    0.0000000000
    GAS1        0.0000000000    0.0000000000     0.0000000000    0.0000000000
    -------------------------------------------------------------------------
    Orbitals are semi-canonicalized.

  ==> Computing DSRG-MRPT2 ... <==

    Computing T2 amplitudes                  ...  Done. Timing        0.012462 s
    Computing T1 amplitudes                  ...  Done. Timing        0.001342 s
    Renormalizing two-electron integrals     ...  Done. Timing        0.010783 s
    Renormalizing Fock matrix elements       ...  Done. Timing        0.001357 s
    Computing <[F, T1]>                      ...  Done. Timing        0.000582 s
    Computing <[F, T2]>                      ...  Done. Timing        0.001661 s
    Computing <[V, T1]>                      ...  Done. Timing        0.001490 s
    Computing <[V, T2]> (C_2)^4              ...  Done. Timing        0.010853 s
    Computing <[V, T2]> C_4 (C_2)^2 HH       ...  Done. Timing        0.002544 s
    Computing <[V, T2]> C_4 (C_2)^2 PP       ...  Done. Timing        0.003493 s
    Computing <[V, T2]> C_4 (C_2)^2 PH       ...  Done. Timing        0.013300 s
    Computing <[V, T2]> C_6 C_2              ...  Done. Timing        0.010975 s

  ==> Excitation Amplitudes Summary <==

    Active Indices:    0    1    2    3    4    5 
    Largest T1 amplitudes for spin case A:
       i       a                  i       a                  i       a               
    --------------------------------------------------------------------------------
    [  5      29    ] 0.113580 [  4      26    ]-0.109642 [  5      32    ] 0.093357 
    [  5      35    ] 0.080665 [  4      30    ] 0.076706 [  4      25    ] 0.053525 
    [  5      41    ]-0.053522 [  4      42    ]-0.046939 [  5      24    ] 0.044806 
    [  5      10    ] 0.042133 [  4      36    ] 0.039950 [  5      22    ] 0.032998 
    [  5      38    ]-0.025288 [  3      14    ]-0.020478 [  4      11    ] 0.019720 
    --------------------------------------------------------------------------------
    Norm of T1A vector: (nonzero elements: 198)                   0.253681759708311.
    --------------------------------------------------------------------------------
    Largest T1 amplitudes for spin case B:
       _       _                  _       _                  _       _               
       i       a                  i       a                  i       a               
    --------------------------------------------------------------------------------
    [  5      29    ] 0.113580 [  4      26    ]-0.109642 [  5      32    ] 0.093357 
    [  5      35    ] 0.080665 [  4      30    ] 0.076706 [  4      25    ] 0.053525 
    [  5      41    ]-0.053522 [  4      42    ]-0.046939 [  5      24    ] 0.044806 
    [  5      10    ] 0.042133 [  4      36    ] 0.039950 [  5      22    ] 0.032998 
    [  5      38    ]-0.025288 [  3      14    ]-0.020478 [  4      11    ] 0.019720 
    --------------------------------------------------------------------------------
    Norm of T1B vector: (nonzero elements: 198)                   0.253681759708311.
    --------------------------------------------------------------------------------
    Largest T2 amplitudes for spin case AA:
     i   j   a   b              i   j   a   b              i   j   a   b             
    --------------------------------------------------------------------------------
    [  3   5   5  14]  0.031368 [  2   3   2  14] -0.028139 [  3   5   5  27] -0.027966 
    [  2   5   5  28] -0.027235 [  0   5   0  32]  0.026597 [  3   5   3  32]  0.026436 
    [  4   5   4  32]  0.025832 [  2   5   2  32]  0.025439 [  2   5   5  15] -0.025121 
    [  1   3   1  14] -0.025035 [  0   3   0  14] -0.024448 [  1   4   4  12]  0.023639 
    [  2   3   2  27]  0.023591 [  2   3   3  15] -0.023459 [  0   3   0  27]  0.022460 
    --------------------------------------------------------------------------------
    Norm of T2AA vector: (nonzero elements: 38874)                0.473944966980717.
    --------------------------------------------------------------------------------
    Largest T2 amplitudes for spin case AB:
         _       _                  _       _                  _       _             
     i   j   a   b              i   j   a   b              i   j   a   b             
    --------------------------------------------------------------------------------
    [  5   5   5  32]  0.038025 [  3   3   3  14] -0.034878 [  0   3   0  14] -0.031999 
    [  2   3   2  14] -0.030713 [  1   1   1  12] -0.028511 [  0   1   0  12] -0.028428 
    [  5   5   1  38]  0.028120 [  2   2   2  15]  0.027868 [  3   3  14  14] -0.027860 
    [  0   5   0  32]  0.027380 [  1   3   1  14] -0.026856 [  5   5   4  36]  0.026574 
    [  0   2   0  15]  0.026425 [  1   5   0  36]  0.026408 [  4   5   4  32]  0.026290 
    --------------------------------------------------------------------------------
    Norm of T2AB vector: (nonzero elements: 48158)                0.532926483822138.
    --------------------------------------------------------------------------------
    Largest T2 amplitudes for spin case BB:
     _   _   _   _              _   _   _   _              _   _   _   _             
     i   j   a   b              i   j   a   b              i   j   a   b             
    --------------------------------------------------------------------------------
    [  3   5   5  14]  0.031368 [  2   3   2  14] -0.028139 [  3   5   5  27] -0.027966 
    [  2   5   5  28] -0.027235 [  0   5   0  32]  0.026597 [  3   5   3  32]  0.026436 
    [  4   5   4  32]  0.025832 [  2   5   2  32]  0.025439 [  2   5   5  15] -0.025121 
    [  1   3   1  14] -0.025035 [  0   3   0  14] -0.024448 [  1   4   4  12]  0.023639 
    [  2   3   2  27]  0.023591 [  2   3   3  15] -0.023459 [  0   3   0  27]  0.022460 
    --------------------------------------------------------------------------------
    Norm of T2BB vector: (nonzero elements: 38874)                0.473944966980717.
    --------------------------------------------------------------------------------

  ==> Possible Intruders <==

    T1 amplitudes larger than 0.1000 for spin case A:
        Amplitude         Value                  Denominator              
    ----------------------------------------------------------------------
    [  5      29    ]    0.11358021 (  0.818436 -   2.595456 =  -1.777020)
    [  4      26    ]   -0.10964236 (  0.586969 -   1.491917 =  -0.904947)
    ----------------------------------------------------------------------
    T1 amplitudes larger than 0.1000 for spin case B:
        Amplitude         Value                  Denominator              
    ----------------------------------------------------------------------
    [  5      29    ]    0.11358021 (  0.818436 -   2.595456 =  -1.777020)
    [  4      26    ]   -0.10964236 (  0.586969 -   1.491917 =  -0.904947)
    ----------------------------------------------------------------------
    T2 amplitudes larger than 0.1000 for spin case AA: NULL
    T2 amplitudes larger than 0.1000 for spin case AB: NULL
    T2 amplitudes larger than 0.1000 for spin case BB: NULL

  ==> DSRG-MRPT2 Energy Summary <==

    E0 (reference)                 =    -38.986270106879566
    <[F, T1]>                      =     -0.011858974709250
    <[F, T2]>                      =      0.011731170250956
    <[V, T1]>                      =      0.011115246324569
    <[V, T2]> (C_2)^4              =     -0.126630065566754
    <[V, T2]> C_4 (C_2)^2 HH       =      0.000000000000000
    <[V, T2]> C_4 (C_2)^2 PP       =      0.027543938085526
    <[V, T2]> C_4 (C_2)^2 PH       =      0.007871034218576
    <[V, T2]> C_6 C_2              =     -0.000653060947300
    <[V, T2]>                      =     -0.091868154209953
    DSRG-MRPT2 correlation energy  =     -0.080880712343678
    DSRG-MRPT2 total energy        =    -39.067150819223244
    max(T1)                        =      0.113580214510120
    max(T2)                        =      0.038024922330478
    ||T1||                         =      0.358760185106166
    ||T2||                         =      1.259083083870487

  Energy took      0.200 s

  =>** After self.dsrg_solver.compute_energy() **<=

  Semicanonical orbitals must be used!


  ==> Total Timings (s) for Computing Commutators <==

           [H1, T1]    [H1, T2]    [H2, T1]    [H2, T2]  
    -----------------------------------------------------
    -> C0       0.001       0.002       0.001       0.041
    -> C1       0.000       0.000       0.000       0.000
    -> C2                   0.000       0.000       0.000
    -----------------------------------------------------


  Time to prepare integrals:        2.650 seconds
  Time to run job          :       44.376 seconds
  Total                    :       47.027 seconds
